# vtk DataFile Version 2.0
Function: z = f(x,y,z)
ASCII
DATASET STRUCTURED_POINTS
DIMENSIONS 30 30 1
ORIGIN 0 0 0
SPACING 0.05 0.05 0.05
POINT_DATA 900
SCALARS f(x,y,z) float
LOOKUP_TABLE default
0.0516457936328
0.0800588979131
0.108324769909
0.136004719951
0.162633418608
0.187750142918
0.21093116716
0.231818215451
0.250138547432
0.265713662711
0.278455540306
0.288351442683
0.295440245144
0.299784666902
0.301444435935
0.300455202861
0.296816967678
0.290494079771
0.281426811161
0.269552442635
0.254832098891
0.237278517463
0.216979719332
0.194114204892
0.168954714501
0.141859524042
0.113252359236
0.0835939430451
0.0533496048998
0.0229580344703
0.125625319502
0.153387316929
0.181678843786
0.20981948763
0.237031311396
0.262525820573
0.285594631115
0.305688661149
0.322472627844
0.335845869574
0.345926300058
0.353000635451
0.357449822523
0.359662835927
0.359953972573
0.35849811292
0.355295256967
0.350170524257
0.342809617878
0.332823563179
0.319831413388
0.303546452352
0.283850766351
0.260845017011
0.234864487162
0.206458258679
0.176334715606
0.145282352455
0.114079106292
0.0834053895591
0.1992324343
0.228055133916
0.258084124677
0.288397271368
0.317904029285
0.345488132372
0.370156538259
0.391169359079
0.40812876953
0.421011946754
0.430142739171
0.436107316623
0.43962869735
0.441422111443
0.442056424746
0.441845747558
0.440790079878
0.438575311407
0.434632576303
0.428246644474
0.41869449768
0.405389966078
0.38800920125
0.366575026054
0.34148526579
0.313479808326
0.283551696031
0.252817194963
0.222366849825
0.193122795832
0.271357511213
0.302341305636
0.33520815292
0.368794195074
0.401696279761
0.432470369377
0.459838763226
0.482870767449
0.501106014274
0.514599519611
0.523881066578
0.529836278708
0.533530245707
0.536004453108
0.538082335685
0.540217233579
0.54240914679
0.544204735177
0.544780563967
0.543095147625
0.538083396446
0.528859686897
0.51489423586
0.496132027425
0.473033429364
0.446529135537
0.417896846638
0.388580600271
0.359983548776
0.333269550141
0.340823540507
0.374278108922
0.410292491912
0.447461108715
0.484068199357
0.518341954685
0.548720015681
0.574080882492
0.593901644876
0.608315157511
0.618057138212
0.624312664205
0.62848889666
0.631953576553
0.635784707589
0.640574859751
0.646324033037
0.652439657467
0.657843729334
0.661168507664
0.661006831284
0.656173622973
0.645933164911
0.630152602422
0.609354845749
0.584661394743
0.557634608424
0.530046295943
0.503612217276
0.479737953183
0.406465164098
0.441871116482
0.480513645157
0.520745446587
0.56053815316
0.597792184179
0.630660522299
0.657830861676
0.678717749597
0.693531879506
0.703214903921
0.709251353753
0.713390461643
0.717326224005
0.722391213478
0.729317229884
0.738104273224
0.748020543674
0.757733468596
0.765549051576
0.769718059974
0.768755962877
0.761721107768
0.748402801204
0.729386495895
0.705984497689
0.680043823928
0.653664055311
0.628873559448
0.607319639876
0.467210605164
0.503328533381
0.543359799602
0.58541537752
0.627154291888
0.666149190459
0.700268397567
0.728008801372
0.748722406693
0.762697745739
0.771082405728
0.775660371262
0.778522946449
0.781690383144
0.786749822916
0.794572295429
0.805157800684
0.817635309017
0.830417678856
0.841484658349
0.848744943386
0.850414549367
0.845345889073
0.833250430295
0.814776168215
0.79142621467
0.765332245329
0.738921612438
0.714535291243
0.694062308053
0.522153636473
0.557261505461
0.596959474169
0.639116793517
0.681079880618
0.720093611683
0.753741652717
0.78033008589
0.799148373549
0.810562886672
0.815927147177
0.817324593353
0.817188600777
0.817865676743
0.821197531754
0.828194425315
0.838856357425
0.85217306858
0.866302848277
0.878899189222
0.887528715838
0.890107989836
0.885283489298
0.872688843246
0.853034589333
0.82801464539
0.800045345409
0.771881813183
0.746177631596
0.725063549729
0.570604385351
0.602821964391
0.640306404865
0.68068523492
0.720992264035
0.758144596871
0.789441241112
0.812997472932
0.82804021221
0.83501366869
0.835477298988
0.831813995086
0.826799204026
0.823105688544
0.822829728073
0.82712081196
0.835978940205
0.848254623461
0.861851582295
0.874097053972
0.882215591447
0.883824302742
0.877363731238
0.862389667191
0.839675190725
0.811105025663
0.779380164322
0.74758350204
0.718681229341
0.695045818075
0.612111350805
0.639755295468
0.673342863281
0.710259859617
0.747227486318
0.780835076499
0.808096979518
0.826937665559
0.836521512028
0.837370567436
0.831250223102
0.820842824693
0.809265890722
0.799518439364
0.793951318984
0.79385324877
0.799224228722
0.808775539653
0.820156333196
0.830367591177
0.836291795084
0.835246599248
0.825466612351
0.806429785883
0.778971742436
0.745168011827
0.708004244698
0.670891107934
0.637107399694
0.609267314603
0.646451891529
0.668359751041
0.696887995418
0.729180707259
0.761646480772
0.790546877523
0.812611588547
0.825574278033
0.828536780918
0.82209898448
0.808232214738
0.789918271049
0.770616743392
0.753652905382
0.741632174319
0.735982499229
0.736703880114
0.742368367944
0.750370545423
0.757385138933
0.759952558496
0.755091004755
0.740829151691
0.716567112026
0.683203050824
0.643003303893
0.599238180202
0.555646118181
0.515818523626
0.482611313934
0.673593789055
0.689360554326
0.712424466176
0.739687884433
0.767246795667
0.791034989898
0.807497499835
0.814177183676
0.810113333887
0.795983676514
0.773965472274
0.747339974214
0.71990884378
0.69532361003
0.676444259192
0.664837970136
0.660504742864
0.661877398503
0.666095950826
0.669508870776
0.668314496905
0.659231576168
0.640082847846
0.610190585894
0.570515497847
0.523514725505
0.47274323616
0.422267239792
0.375990749832
0.337011406449
0.693635375029
0.703721276564
0.721781086392
0.744475441569
0.767587721028
0.786723943243
0.798044482598
0.798901391299
0.78827141934
0.766910131535
0.737200723301
0.702723901374
0.667623398669
0.635876999682
0.610599259574
0.593496587057
0.584568982131
0.582110036084
0.583005193756
0.583276670649
0.578780733849
0.56593667662
0.542361303545
0.507299049811
0.461773165422
0.408431598173
0.35111397368
0.294214273469
0.241949118607
0.197657872039
0.706735292165
0.712425794817
0.726766967476
0.746177724427
0.766128836966
0.781898552019
0.789362585645
0.785682184059
0.769771554784
0.742464101401
0.706348954027
0.665306273087
0.623821862963
0.586199763593
0.555809099069
0.534495507944
0.522258990219
0.517253907339
0.516111135213
0.514526633904
0.508014599028
0.492694870162
0.465978317187
0.427031536524
0.376940320647
0.318543423345
0.255965128557
0.193927189356
0.136958834447
0.0886411495458
0.713044617115
0.716269095389
0.728821005385
0.746877538614
0.765596858736
0.779929441132
0.785466343535
0.779178006166
0.75991609408
0.728591849624
0.688000337615
0.642321172167
0.596382229129
0.554813803881
0.521239589446
0.497644454218
0.484028398197
0.47840655299
0.477155225571
0.475644120564
0.469045362117
0.453179336118
0.425250977748
0.384349044661
0.331621871802
0.27009901895
0.204189428372
0.138942624687
0.0792004442352
0.0287856955063
0.71265352497
0.715693522968
0.728737714403
0.747721568014
0.767490639823
0.782667633665
0.788558948947
0.7819442199
0.761612569106
0.728553077679
0.685766745137
0.637732639284
0.589620707437
0.546387500413
0.51191128017
0.488316144942
0.475602094729
0.471645031297
0.472566692689
0.473410528086
0.469006590172
0.454875811143
0.428017191481
0.387441650073
0.334360064334
0.271992800037
0.205033457772
0.138859333706
0.0786248718142
0.0283946033606
0.705562015728
0.710699077554
0.726517094532
0.748709812627
0.771810180227
0.790113129617
0.798640401882
0.793980825258
0.774860979859
0.742347785566
0.699648176595
0.65154067444
0.603537297885
0.560920853189
0.527824171241
0.506510580116
0.496980079815
0.496969342261
0.502345536566
0.507825856472
0.507898283193
0.497784295237
0.474276958386
0.43630935276
0.385154898245
0.324224766606
0.258497216757
0.193677316412
0.135232117184
0.0874678731085
0.6916799143
0.700843414458
0.721364631484
0.748695588569
0.777056626463
0.800414905907
0.81350750966
0.812732459965
0.796753794466
0.76671627181
0.726032760915
0.679781236963
0.633815790205
0.593745482342
0.563957713193
0.546855040676
0.542437464791
0.54830242762
0.560062529344
0.572108708263
0.578586874124
0.574419051746
0.556192372211
0.522762076872
0.475464128086
0.417900503608
0.35533412068
0.293797818561
0.239071256502
0.19570241131
0.670856144034
0.685331547379
0.711841429305
0.745596090233
0.780503263276
0.810202337627
0.829145737721
0.833540679809
0.821988659063
0.795712272899
0.758330324933
0.715220244037
0.672578191931
0.636339485754
0.611146094259
0.599539805203
0.601520618588
0.614546746654
0.63397622065
0.653873723435
0.66804309329
0.671106901344
0.659446343979
0.63183882378
0.589682845575
0.536771193114
0.47865144196
0.421684202922
0.371961742884
0.334273761429
0.642932062217
0.663179599252
0.696138376584
0.736776971859
0.778690510555
0.815190610317
0.840445037257
0.850470201632
0.843805056144
0.821750036975
0.788129882443
0.748621475108
0.709763048157
0.677816174171
0.657677390833
0.652027715744
0.660867148902
0.68151467271
0.709073749482
0.737282806638
0.759603610991
0.770359279981
0.76572507529
0.744400560736
0.707846783618
0.660047333676
0.606834444801
0.554896499347
0.510638371836
0.479091484622
0.607809337201
0.633423998837
0.672426662484
0.719544183016
0.768059078275
0.810955194359
0.842115639053
0.857366016625
0.855182737304
0.836944076041
0.806680705852
0.770368962988
0.734889152102
0.706829101216
0.691339916946
0.691241846732
0.706534890575
0.734398801033
0.769682471491
0.805798073928
0.835865303689
0.853907824524
0.855894963417
0.840448445418
0.809091860295
0.765999603784
0.717288568098
0.669974907138
0.630776103063
0.604965301
0.565520187456
0.595339522917
0.639223622105
0.691657617119
0.745611418166
0.793741099796
0.829645111472
0.848958251464
0.850094387537
0.834509633404
0.806440596784
0.772163067615
0.73889942202
0.71356374346
0.701561707483
0.70585279137
0.726436995121
0.760354841456
0.802200654825
0.845060351768
0.881711556162
0.905878478068
0.91332450977
0.902593537551
0.87527169365
0.835724179794
0.790352546521
0.746500719281
0.711198787867
0.68996162018
0.516287254287
0.548627919146
0.595710109446
0.651777234516
0.709486596923
0.761166499673
0.800130733901
0.821823291888
0.824595498926
0.809981307497
0.782423260018
0.748496600118
0.715765775386
0.691471124724
0.681272892612
0.688269786173
0.712461805406
0.750750243189
0.797474855042
0.845395302063
0.886947136663
0.915555115213
0.926776695297
0.91907792443
0.894107477323
0.856421361695
0.812705786409
0.77063244846
0.737544045281
0.719197167542
0.460562038686
0.493543802223
0.541943852916
0.59976387732
0.659348570367
0.712698463515
0.752842689576
0.775034434837
0.777562482119
0.762038622673
0.733111333615
0.697655312263
0.663577077673
0.638443224189
0.628168565221
0.635991037735
0.661910641729
0.70268944024
0.752412619857
0.803513586236
0.848085820321
0.879254624794
0.892371522538
0.885824722304
0.86132544127
0.823620493149
0.779680745129
0.737505665752
0.704750560085
0.687413741575
0.399034413328
0.430935240483
0.478931116508
0.536782005186
0.596519993813
0.649817842299
0.689420025133
0.710388922607
0.710950775074
0.692795212551
0.660776646853
0.622069228988
0.584921549481
0.557226458114
0.545153337231
0.552079353638
0.578004507333
0.619551631512
0.670551343831
0.723110794509
0.768981393019
0.800988988354
0.8142791687
0.807162304037
0.781412154016
0.741966338342
0.696080382528
0.652081526662
0.617937683449
0.599888889107
0.332610605446
0.36219108808
0.4085433813
0.465185726115
0.523837602184
0.575843997871
0.613664729339
0.63217137089
0.629527620404
0.607500946665
0.571151696191
0.527953473675
0.486496941113
0.455001203726
0.43989021279
0.444680364952
0.46937166021
0.510447701919
0.561484538804
0.614263065642
0.660192620439
0.6917995985
0.704023653309
0.69509731608
0.666856888935
0.62443079757
0.575359225824
0.528297185331
0.491525196434
0.471525018122
0.262362391861
0.289103139952
0.333292460345
0.388206871274
0.445253244763
0.495448797628
0.530968687709
0.546493683313
0.540124939852
0.513707764876
0.472508439602
0.424300022414
0.378015246774
0.342199473345
0.323531222334
0.325666120228
0.348604167027
0.388689736245
0.439244307673
0.491722520648
0.537191641711
0.567878612474
0.578517151724
0.567261951907
0.536011857615
0.490086100538
0.437309522837
0.386664907696
0.346745383092
0.324274430788
0.189455130656
0.21366582339
0.256001850139
0.309498006367
0.365248556461
0.413942945689
0.447471673566
0.46032470241
0.450540645157
0.420042648129
0.37430292724
0.321393994565
0.270590655032
0.230764524745
0.208848692842
0.208638015654
0.230132493179
0.269537269089
0.319919254245
0.372406832543
0.417725199055
0.447801841706
0.457164544581
0.443890161361
0.409940079106
0.360824335501
0.30465243103
0.250734920425
0.207977539299
0.183345492188
0.115065831567
0.137846861561
0.179429987285
0.23260828143
0.288163400745
0.336457018955
0.369094977247
0.380376431947
0.368277453522
0.334799027058
0.285619303172
0.229110247627
0.174888736819
0.132152642293
0.108089622117
0.106633762464
0.127785063333
0.167609438553
0.218919230055
0.272516566293
0.318784570873
0.34935127803
0.358538537148
0.344345363142
0.308795685544
0.257590348028
0.199123509406
0.143033495954
0.0985386509239
0.0728459016236
0.0403041214057
0.063367297703
0.105909331445
0.16048157255
0.217553070131
0.267157726365
0.300616724116
0.312038413715
0.29933632316
0.264589276306
0.213681358466
0.155283989095
0.099356116055
0.0554218663316
0.030923466927
0.0299342338524
0.0524541671079
0.0944099506822
0.148359357573
0.204778260795
0.253707712485
0.286476293191
0.297199917596
0.283799761848
0.248362297948
0.196779175566
0.137729211835
0.0811785045809
0.0366580046896
0.0116163622433
