# vtk DataFile Version 2.0
Function: z = f(x,y,z)
ASCII
DATASET STRUCTURED_POINTS
DIMENSIONS 30 30 1
ORIGIN 0 0 0
SPACING 0.05 0.05 0.05
POINT_DATA 900
SCALARS f(x,y,z) float
LOOKUP_TABLE default
0.0516457936328
0.055523132442
0.0593744890834
0.0631224477328
0.0666848914321
0.0699805161288
0.0729345466959
0.0754837579776
0.0775800193223
0.0791918306606
0.0803036588783
0.0809132561751
0.0810274828986
0.080657407145
0.0798135691459
0.0785022601866
0.0767234802671
0.0744709381021
0.0717340934599
0.0685018782445
0.0647674321082
0.0605330028512
0.055814123588
0.0506422943876
0.0450656459019
0.0391474032865
0.0329623416686
0.0265917651006
0.0201177905406
0.0136178338127
0.150161084974
0.153387316929
0.156706995254
0.160000047166
0.163129189651
0.165955276621
0.168353299127
0.170226360366
0.17151529278
0.172202332553
0.172308287989
0.171883756056
0.170995962655
0.169713550371
0.168091983365
0.166162122895
0.16392396896
0.161346660302
0.158374732763
0.154939543755
0.150973867377
0.146427106663
0.141278453307
0.135545671127
0.129287927681
0.12260211977
0.115613256343
0.108460483491
0.101281084224
0.0941951313278
0.248182715126
0.253026982448
0.258084124677
0.263191412071
0.268156395563
0.272782087027
0.27689324369
0.280359297107
0.283110042811
0.28514145324
0.286510678114
0.287321159172
0.287700487866
0.287774881272
0.287644727479
0.287365457718
0.286937071987
0.286304139058
0.285366270841
0.28399725026
0.282069485862
0.27947953591
0.276170250683
0.272145657743
0.267475961557
0.26229173057
0.256768207555
0.251102380638
0.245486698885
0.24008389204
0.344239783431
0.352160746101
0.360414012217
0.368794195074
0.377053679555
0.384937635494
0.392220586298
0.398738291874
0.40440951085
0.409243951916
0.413335106211
0.416839260241
0.419944371012
0.42283423009
0.425654149493
0.428484130422
0.431324172878
0.434094275659
0.436649126746
0.438804934575
0.440373742139
0.441199262931
0.441188005814
0.440330262097
0.438707273152
0.436483279071
0.433883756449
0.43116353545
0.428570231193
0.426309230382
0.436772067683
0.448180230667
0.460040125634
0.472103708921
0.484068199357
0.495620924737
0.506486174646
0.516466037347
0.52546823456
0.53351621123
0.540739799911
0.547348131879
0.553589529693
0.559705359408
0.565885856972
0.572235593558
0.578754569165
0.585338212622
0.59179628798
0.597887429184
0.603363313674
0.608014810176
0.611712086135
0.614431696606
0.616265919868
0.61741266766
0.618147650396
0.61878354028
0.619623118485
0.620914428673
0.524234790887
0.538441660434
0.553219690502
0.568278180469
0.583259183108
0.597792184179
0.611551239444
0.624304765518
0.635949447219
0.646522465741
0.656189995058
0.665214011213
0.673903202319
0.682556508921
0.691409090896
0.700590089387
0.710099504397
0.719808194779
0.729481000656
0.738818981484
0.747513449151
0.755302427613
0.762019742897
0.767628213805
0.772231155524
0.776060151437
0.779441145782
0.782744652799
0.786328619714
0.790483747151
0.605207225628
0.620569865369
0.636623094171
0.653033554448
0.669388132922
0.685258473315
0.700268397567
0.714152650648
0.726796880467
0.738252004473
0.748720538057
0.758517302031
0.768011350062
0.777559197182
0.787440927198
0.797810251227
0.80866716927
0.819857970209
0.831102570237
0.842044454321
0.852314568796
0.861598092849
0.869692511089
0.876546906067
0.882275629874
0.88714393754
0.891528007125
0.895856194907
0.900541614164
0.905917622481
0.678488093946
0.692723806245
0.707769536141
0.723249269092
0.738694725763
0.75361970784
0.767597803441
0.78033008589
0.791691166189
0.801745698041
0.810732538255
0.81901935241
0.827035559727
0.835195249727
0.843823430148
0.853098382077
0.863020105515
0.873410319372
0.883944015914
0.894207105616
0.903770169261
0.912265541268
0.919454364826
0.925271986236
0.929843794493
0.933468716274
0.936573163461
0.939643334369
0.943147508331
0.94746169989
0.743162913461
0.753779299454
0.765325131583
0.777381738344
0.789425674351
0.80091289925
0.811366767338
0.820454680292
0.82804021221
0.834201753046
0.839214501026
0.843498966501
0.847544934241
0.85182406826
0.856706300222
0.862394481189
0.86888861116
0.875985839074
0.883316233266
0.890408129725
0.896771743678
0.901986564775
0.90577739479
0.908065843769
0.908988337614
0.908877474648
0.908209900575
0.907529655747
0.907360185551
0.90812016149
0.798633182855
0.803398832489
0.809213356795
0.815615427312
0.822026432599
0.827844490265
0.832542720784
0.83575485419
0.837333427671
0.837370567436
0.836177813129
0.834228519867
0.832072837976
0.830240005959
0.829144879408
0.829014879357
0.829850005806
0.831422837722
0.833318519511
0.83500781267
0.835940566876
0.835643427009
0.833804853426
0.830332719919
0.825374489297
0.81929643153
0.812625426141
0.805963355522
0.799888831114
0.794863181378
0.844603772956
0.841977763109
0.840520056474
0.839726667626
0.838963819074
0.837571786387
0.834973456218
0.830768886955
0.82479957888
0.817171394453
0.808232214738
0.79850823962
0.788609984979
0.779124263805
0.770510855621
0.763021751432
0.75665695124
0.751164464037
0.746084510302
0.740830277043
0.734791248381
0.727441224431
0.718432324129
0.707658685016
0.695278806808
0.681692631118
0.667477271294
0.653292451765
0.639771950024
0.627419751494
0.881031975562
0.87047743372
0.861210623628
0.852684902901
0.844211327993
0.835072332438
0.824640569067
0.812482424619
0.798428362473
0.782597981341
0.765375503702
0.747339974214
0.729162274306
0.71148679146
0.694818229128
0.679433148288
0.665331548938
0.652236870102
0.639644408328
0.626909776135
0.613362092092
0.598422311542
0.581706212007
0.563094194773
0.542755796463
0.521124630336
0.498828043562
0.476583602607
0.455080251018
0.434864631179
0.908048137274
0.890175136431
0.873709295876
0.858061316264
0.842487087996
0.826211202567
0.808556078986
0.789054432349
0.767525689125
0.744103184281
0.719207481714
0.693470470848
0.667623398669
0.642368227145
0.61825458366
0.59558359916
0.574355273648
0.554268476173
0.534773579354
0.515168621221
0.49472235479
0.472802890636
0.448989664862
0.423149342501
0.395462497083
0.366396413513
0.336628672783
0.306934683397
0.278058554954
0.250589586799
0.925862551922
0.902375080373
0.880414197648
0.859347947445
0.838377054111
0.816668267103
0.793493771607
0.768352611075
0.741053175067
0.711742534806
0.680877595605
0.649143091656
0.617330635499
0.586199763593
0.556345027248
0.528092127385
0.501441064004
0.476066136184
0.451372792615
0.426601496837
0.400960636312
0.373765476847
0.344559113128
0.313194473935
0.279863169703
0.245066156985
0.209531250594
0.17409170107
0.139546784068
0.106528455892
0.934675483905
0.908131084597
0.883232702652
0.859305724806
0.835495709354
0.810911563715
0.784775239253
0.756552107773
0.726039521931
0.6933982892
0.659121656313
0.62394720223
0.588726905044
0.554277875702
0.521239589446
0.489962317167
0.460446058866
0.432340543649
0.405006296278
0.377626205803
0.349348294133
0.319434982306
0.28739302359
0.253061610513
0.216643390416
0.178672991498
0.139928462393
0.10130089568
0.0636447330679
0.0276345878183
0.934606467644
0.908029512993
0.883218004243
0.859454671171
0.835829906016
0.811394774162
0.785320993149
0.757040263138
0.726338899876
0.693391447092
0.658727492934
0.623137461133
0.587533695333
0.552790880973
0.519593417221
0.488316144942
0.458959064136
0.431147333939
0.404196555181
0.377232042425
0.349341452025
0.319734360251
0.287881178955
0.253607364409
0.217126600863
0.179007188161
0.140077408758
0.101286197272
0.0635431614642
0.0275655715573
0.925655503139
0.902070365561
0.880370102422
0.859794786539
0.839379644098
0.818117898444
0.795131033296
0.769817077169
0.741951308904
0.711722008482
0.67969510547
0.646713868366
0.613751006368
0.581738779404
0.551406510572
0.523153610709
0.496980079815
0.472486507052
0.448943569324
0.425419006702
0.400940109988
0.374663610684
0.346023579222
0.314831735623
0.281312801044
0.246068746973
0.209978089688
0.174047605844
0.139242069257
0.106321407109
0.907703055969
0.889667278413
0.873635803833
0.858806048087
0.844158071308
0.828627254801
0.811284848468
0.791495209172
0.769022578853
0.744068973741
0.717236664822
0.689421765364
0.661657350116
0.634933253497
0.610023722534
0.587352738034
0.5669203
0.54830242762
0.53072487387
0.51319780433
0.49468814425
0.474299780364
0.451430441685
0.425878111982
0.397878549318
0.368067396825
0.337373404607
0.306861191354
0.277550696936
0.250244505494
0.880548861735
0.869766432494
0.861107734768
0.853727527454
0.84655070463
0.838454805567
0.828460846341
0.815899512172
0.800524008092
0.782550086585
0.762616360054
0.741671786535
0.720809806333
0.701077828353
0.683295023552
0.667909942711
0.65492258583
0.643884402129
0.63397622065
0.624150632487
0.613314197336
0.600517957161
0.58512329956
0.566914472047
0.546138269592
0.523464006973
0.499870668115
0.476480713748
0.454369249792
0.434381517352
0.843982626607
0.841063618676
0.840387770797
0.841067184909
0.841971589035
0.841920680409
0.839885241285
0.835162285237
0.82749398039
0.817109815482
0.804684744333
0.791220569748
0.777871097584
0.765741311238
0.755695305594
0.748206201406
0.743273998673
0.740425576643
0.73879684043
0.737282806638
0.73472966941
0.730135625941
0.722825722412
0.712570470083
0.69962770083
0.68470040108
0.668817788576
0.653160166088
0.63885780559
0.626798605145
0.797874003984
0.802281544848
0.809051674302
0.817253837324
0.825702595885
0.833159805181
0.838546013644
0.841124563202
0.840626585073
0.837295304249
0.831842015967
0.825321367801
0.818947531161
0.813883063933
0.811036984931
0.81090698488
0.81349306378
0.818297530907
0.824411367445
0.830672015509
0.835865303689
0.838936584411
0.839174562438
0.836336012778
0.830689804214
0.822972594816
0.814263836152
0.805801673029
0.798771543473
0.794104002507
0.742265702068
0.752458868606
0.765134052273
0.779318041085
0.793770230962
0.80719463506
0.818461567989
0.826800700033
0.831932125503
0.834112805643
0.834090377108
0.832972332241
0.832033208005
0.832493136775
0.835306061295
0.840994242261
0.849557679675
0.860474112838
0.872789599007
0.885284005807
0.896682796275
0.905878478068
0.912123414531
0.91516064442
0.915270073424
0.91322203126
0.910146203316
0.907338576436
0.906039754703
0.907222950097
0.677452850031
0.691200232189
0.707549060014
0.725483464562
0.743707675699
0.760867864544
0.775784111885
0.78765241636
0.796181835374
0.801643066422
0.80482008758
0.806873235957
0.809137414069
0.812890328783
0.81913084677
0.828405798699
0.84071518457
0.855512173715
0.87179789946
0.888294654941
0.903667537642
0.916756210452
0.926776695297
0.93345829468
0.937091951197
0.93848166621
0.938807358931
0.939422858241
0.941623934275
0.946426455975
0.60403394919
0.618843148106
0.636373221226
0.655565642648
0.675069476183
0.693473050913
0.709546213804
0.722451291848
0.731886305542
0.738135688638
0.742019760625
0.744751703384
0.747726784983
0.752280286778
0.75945599937
0.769825323399
0.783388258866
0.79957340513
0.81733697159
0.83534367689
0.852198252961
0.866687517925
0.877991152289
0.885824722304
0.890490207472
0.892825280801
0.894060095325
0.895606321962
0.898814896901
0.904744346044
0.522923481927
0.536511799963
0.552940420741
0.571108161398
0.589608919694
0.60697318267
0.621920563473
0.633579717448
0.641637628185
0.64639246569
0.648700890869
0.649828930372
0.65123221782
0.654303609058
0.660131818617
0.669312817109
0.681846604534
0.69713721028
0.714095919815
0.731329877296
0.7473834491
0.76099060858
0.771294694826
0.777997537835
0.781412154016
0.782409888023
0.782271126711
0.782465383038
0.784398759244
0.789172438192
0.435322726202
0.446047226989
0.459731459055
0.47523158258
0.491086329267
0.505768344122
0.517947006468
0.526717300005
0.531755171418
0.533372526963
0.532462368966
0.530343568844
0.528532125773
0.528478470086
0.531316240242
0.537665976828
0.547527679843
0.560280808702
0.574791724945
0.589609998239
0.603219629407
0.614301747034
0.621963348793
0.625892528428
0.626413339254
0.62443079757
0.621275524055
0.618474873702
0.617490114807
0.619465087191
0.342652409428
0.349824599216
0.360075948821
0.372219961463
0.384740202791
0.396051475774
0.404772925913
0.409965865262
0.411295203599
0.409086583433
0.40426934851
0.398215215013
0.392500547671
0.388633351308
0.387792188313
0.390622169242
0.397123294096
0.406650452318
0.418025081518
0.429739176873
0.440216373656
0.44808495568
0.452415579201
0.452882601711
0.449821113431
0.444169802307
0.437309522837
0.430825472054
0.426234084307
0.424721856378
0.246457308601
0.250487692355
0.257716664465
0.266915071188
0.276511312124
0.2848623482
0.290537091097
0.292563181224
0.290594491451
0.284970400541
0.276656593656
0.26707763175
0.257870245104
0.250600013031
0.246490421849
0.246211152088
0.249762203746
0.256473896296
0.265122743419
0.274143165802
0.281898433164
0.28696398455
0.2883741348
0.285789505151
0.27955622273
0.27064664713
0.260491866672
0.250734920425
0.242947408792
0.238358485515
0.148297645926
0.150644883629
0.156310138225
0.164021599013
0.172152499537
0.179001958689
0.183088654326
0.183406555212
0.179598497311
0.172017595639
0.161665876774
0.150020746441
0.138779300472
0.129564692671
0.123645333285
0.121715472814
0.123775111259
0.129129998119
0.136511723147
0.144297132539
0.150789130463
0.154510311194
0.154458648154
0.150281026327
0.142334609748
0.131625429655
0.11963480819
0.108063626461
0.0985386509239
0.0923316922804
0.0496443220633
0.0525775559343
0.0589482352368
0.0674418923092
0.0763765946421
0.0839936190901
0.0887614096882
0.0896402635536
0.0862619797449
0.0789934095303
0.0688729209066
0.0574307643655
0.0464244012946
0.0375345599855
0.032074574615
0.0307632656557
0.0336006331076
0.0398678564981
0.0482516016503
0.0570711402728
0.0645690109778
0.0692149632739
0.0699706291639
0.0664691573799
0.0590787488632
0.0488391064965
0.037281786245
0.026165511254
0.0171722140329
0.0116163622433
