# vtk DataFile Version 2.0
Function: z = f(x,y,z)
ASCII
DATASET STRUCTURED_POINTS
DIMENSIONS 30 30 1
ORIGIN 0 0 0
SPACING 0.05 0.05 0.05
POINT_DATA 900
SCALARS f(x,y,z) float
LOOKUP_TABLE default
0.0516457936328
0.062533351148
0.0733602836051
0.0839459540809
0.0940987563396
0.103628980926
0.112362152543
0.120150745827
0.126882455925
0.132483782675
0.136918482143
0.140181309463
0.142288272112
0.143265195647
0.143136673943
0.141917386665
0.139607333813
0.136191835722
0.131646298517
0.125944896642
0.119071622618
0.111031721312
0.101861436658
0.0916342688174
0.0804625226445
0.0684937235025
0.0559023466879
0.0428781016562
0.0296125946432
0.016286462572
0.143150866268
0.153387316929
0.16384180912
0.174234173013
0.184244081578
0.193546860607
0.201850822552
0.208929874875
0.214645959941
0.218957628845
0.221913434295
0.223631435883
0.224268494046
0.223984774816
0.222909694568
0.221115262902
0.218601479819
0.215296335718
0.211070414224
0.205763549304
0.199218880523
0.191318348288
0.182013399891
0.171345484237
0.159452658961
0.146561016601
0.132962244704
0.118981017481
0.104937661958
0.0911123479653
0.234196920605
0.245892168582
0.258084124677
0.270393086156
0.282370005198
0.29355524284
0.303539899281
0.312019314813
0.318829679016
0.323961594244
0.327548409845
0.329831489872
0.331108547718
0.331674089892
0.33176235527
0.331502683386
0.330895074241
0.329810188301
0.328013786687
0.325211362893
0.321105203525
0.31545394453
0.308124236559
0.299125477261
0.288621477052
0.276916895643
0.264420632834
0.251592327588
0.238881027725
0.226666435981
0.323416277083
0.337926620254
0.353212338132
0.368794195074
0.384094422471
0.398518416604
0.41154006542
0.422776142038
0.432037083257
0.439345542686
0.444919666316
0.44912412266
0.452397478068
0.455168579524
0.457776488405
0.460407874181
0.463062736853
0.46555440695
0.467543823095
0.468602138304
0.468290786226
0.46624509835
0.462246928684
0.456273623619
0.448514746355
0.439353523776
0.429316067931
0.418996982542
0.408974036217
0.399726464599
0.409358202776
0.42706533874
0.445826515999
0.465062966005
0.484068199357
0.502112647579
0.518552986371
0.532927421674
0.545020637508
0.554887338739
0.562830467997
0.569337998258
0.574989348827
0.580347707164
0.585856957148
0.591761098184
0.598060130272
0.604510054006
0.610666985509
0.615967737321
0.619832890134
0.621774470975
0.621489537214
0.618923383982
0.614291327262
0.608055161112
0.600858209833
0.593430041898
0.586477146711
0.580578292819
0.49058632609
0.510850076448
0.532446534689
0.55469739936
0.576767460266
0.597792184179
0.617011034545
0.633883650135
0.648168962184
0.659953726817
0.669625683304
0.677796109081
0.685185276412
0.692490713231
0.700261125919
0.708797843815
0.718100866919
0.727868865892
0.737553134353
0.746456144368
0.753857623672
0.759146294832
0.761934418574
0.762135238776
0.759989824202
0.756038536081
0.751041910967
0.745864482088
0.741341459638
0.738151145072
0.565779619781
0.587072341944
0.60997643858
0.633714075326
0.657321321198
0.679798678213
0.700268397567
0.718111550855
0.733061316531
0.745236501977
0.755109643106
0.763415321811
0.771014663315
0.778739536028
0.787243468832
0.796885120999
0.807664492531
0.819222924154
0.830906886985
0.841884512615
0.851294675822
0.858402794712
0.86273633337
0.864176484418
0.8629900694
0.85979601672
0.855472075183
0.851017742773
0.847396950472
0.845387532645
0.633821106097
0.654020291735
0.676109518435
0.699211418927
0.722233341436
0.744040823224
0.763638903234
0.78033008589
0.793821796864
0.804264894793
0.812216712232
0.818535135537
0.824222142884
0.830243943161
0.83735888775
0.845982965859
0.856116177489
0.867342533431
0.878903682303
0.889833415218
0.899129753998
0.905934812287
0.909691257533
0.910248231096
0.907898307304
0.903338981736
0.897565215446
0.891711471173
0.886870400692
0.883919371272
0.693860476858
0.710648632293
0.729605495378
0.749754165937
0.769873271404
0.788693384285
0.805102331273
0.818324049618
0.82804021221
0.834433728944
0.838146729015
0.840160403239
0.841617582751
0.843618816913
0.847027279608
0.852316289981
0.85948584803
0.868062634613
0.877183475846
0.885747822367
0.89261284304
0.896797347051
0.897659205204
0.895015507604
0.88918458136
0.880942489224
0.871401404502
0.861830754688
0.853451912348
0.847241777657
0.745341230841
0.756643536197
0.770393215791
0.785513836542
0.80065530509
0.814413229189
0.82555822328
0.833235657438
0.837101451773
0.837370567436
0.834769930264
0.830404035532
0.825556567332
0.821462415503
0.81908957643
0.818968699189
0.821099783782
0.824952181131
0.829557894849
0.833682035101
0.836040917793
0.835530047649
0.831422498833
0.823503310194
0.812116561623
0.798116883043
0.782733660014
0.767371284783
0.753379850708
0.741835790871
0.787988949691
0.792372616804
0.799482324744
0.808142107521
0.816873150988
0.82413609814
0.828584351169
0.829284712977
0.82586735089
0.818579277318
0.808232214738
0.796053962886
0.783469058811
0.771846732827
0.76225980382
0.755296250803
0.750956073775
0.748651293725
0.747309091765
0.745560237583
0.741980194128
0.735341161666
0.724831417718
0.710203949876
0.691828590812
0.670638537625
0.647980388125
0.625393499312
0.604356685339
0.586045912191
0.821763922274
0.818729753893
0.818700292927
0.820400040482
0.822221461615
0.82249023457
0.819742549286
0.812966641493
0.801766925734
0.786422465676
0.767829780437
0.747339974214
0.726518437013
0.706868739623
0.689568523432
0.675263097387
0.663952461488
0.654991306788
0.647201991899
0.639080946032
0.629062779181
0.615796387149
0.598385250818
0.576550306522
0.550687139715
0.52180751467
0.491375241447
0.461064641803
0.432483250679
0.40690656697
0.846787348061
0.836902605041
0.830301236023
0.825608209208
0.821087268862
0.814929128474
0.805552765733
0.791867849192
0.773453040615
0.750619454925
0.724348407882
0.696114308141
0.667623398669
0.640513590727
0.616067348207
0.594987309988
0.577273476072
0.562223207576
0.548554040612
0.534628063915
0.518739034521
0.499412543774
0.475667275914
0.447192116018
0.414408402323
0.378406466273
0.340767330182
0.30330028056
0.267741573141
0.235466239725
0.86325476342
0.848103855928
0.836514989027
0.827013598011
0.817734706355
0.806734062793
0.792313432761
0.773303917642
0.749258426415
0.720520125262
0.688155126582
0.653761143494
0.619185271918
0.586199763593
0.556191904911
0.529921664687
0.507389042922
0.4878340708
0.469869461929
0.45172296457
0.431547482802
0.407745303508
0.379250314288
0.34571934896
0.307599498545
0.26605966166
0.222798072869
0.179758983437
0.138807369891
0.101417796936
0.871352379108
0.853313373394
0.839115074861
0.827183385894
0.815524609178
0.802059528691
0.784972697619
0.763016650171
0.735718542545
0.703453592178
0.667372708113
0.629196907926
0.590914140497
0.554430998039
0.521239589446
0.492157213467
0.467183870103
0.445502260604
0.425620276076
0.405631324306
0.383547456414
0.357647654823
0.326781010492
0.290572305983
0.249494385098
0.204794713627
0.158288738387
0.112055675397
0.0680892219728
0.0279634757291
0.871191341166
0.853076372986
0.839080778574
0.827530927412
0.81630440139
0.803187019734
0.786246123377
0.764155679355
0.736417091085
0.70343762726
0.666452993564
0.627307512034
0.588129984506
0.55096134367
0.51739852092
0.488316144942
0.463714215734
0.442718104613
0.423730880184
0.404711609756
0.383531491495
0.358346203363
0.327920039677
0.291845731741
0.250621876141
0.20557450584
0.158636279905
0.11202137911
0.0678522215642
0.0278024377868
0.862771649593
0.847392854702
0.836412100168
0.828056222564
0.820074082992
0.810116535922
0.796133710035
0.776721005194
0.751354072034
0.720472230506
0.685395982934
0.648092955816
0.610832803944
0.575790800485
0.544668699335
0.518398459111
0.496980079815
0.479481602826
0.46420127425
0.448963820922
0.431499588046
0.409840949128
0.38266740184
0.349539626234
0.310981971673
0.268399038296
0.223840697422
0.179656094578
0.138096368665
0.100934683109
0.84598215835
0.835717602997
0.83012975459
0.827345916796
0.824986229924
0.820566583689
0.811919894523
0.797562995113
0.776945783314
0.750539630332
0.719749835134
0.686667328678
0.653702618713
0.623165318881
0.596862005579
0.575781967361
0.559925204226
0.54830242762
0.539107061148
0.530029491168
0.518659209928
0.502905286473
0.481362421835
0.453559244808
0.420045857537
0.382305427335
0.34250503777
0.303128799128
0.266556571098
0.234661050013
0.820636656678
0.817070751033
0.818460218922
0.822832831105
0.827680007101
0.83038267187
0.828656529592
0.820939845783
0.806656765512
0.786310711246
0.761391778591
0.734114202965
0.707029345075
0.682581159039
0.662681043754
0.648375617709
0.639664880904
0.63550221485
0.63397622065
0.632642944186
0.628951024751
0.620686226928
0.606358455108
0.585464286828
0.558579577015
0.527266060156
0.493808032071
0.460824567797
0.430824247819
0.405779301374
0.78653960821
0.790239613126
0.799173658165
0.81126998118
0.823891280898
0.834283517526
0.840045182991
0.839535975635
0.832154287748
0.818435593051
0.799954783793
0.779049399851
0.758411654891
0.740619843504
0.727690187091
0.720726634074
0.719729184453
0.723593889805
0.73030452873
0.737282806638
0.741836509862
0.741628098524
0.735082680377
0.721664781698
0.701976010198
0.677656667536
0.651108261784
0.625084832734
0.602223681661
0.58459657071
0.743569813475
0.754036531702
0.770015956639
0.789336793236
0.809233019425
0.82681563066
0.839565906618
0.845764978465
0.84478548571
0.837194953332
0.82465307022
0.809620680712
0.79493085143
0.783296217442
0.776837822649
0.776716945409
0.782933585721
0.794326465228
0.808774540029
0.823565175057
0.835865303689
0.843214081586
0.84395181986
0.837510993532
0.824518963094
0.806694597378
0.786556616708
0.766994025631
0.750772846213
0.740064373505
0.691766983607
0.707567626981
0.729159643653
0.754272205667
0.780010570163
0.803350767842
0.821656866127
0.833131429014
0.837121343227
0.834226185003
0.826190439873
0.815598256634
0.805423554866
0.798513310114
0.797093388777
0.802382399149
0.814380341231
0.831868606728
0.852621329241
0.873791533224
0.8924052991
0.905878478068
0.9124665846
0.911570042458
0.903841964917
0.891079787984
0.875919444232
0.861384902963
0.850370907035
0.845148284407
0.631405536961
0.650465285605
0.675595074137
0.704424541692
0.733930224621
0.760953188867
0.782740289604
0.797415523654
0.80430002496
0.804025421015
0.798420993991
0.790194197146
0.782459803017
0.778199127623
0.779742859868
0.788366937977
0.804071361952
0.825580193565
0.850562743912
0.876037696976
0.89889028022
0.916413040384
0.926776695297
0.929349617466
0.924810672947
0.91503586492
0.902778338211
0.891197026875
0.883315394562
0.881503802137
0.56304197476
0.583043334997
0.609393401709
0.639622281126
0.670577788807
0.698966025942
0.721916635453
0.737475046987
0.744936641707
0.744965098362
0.739474495765
0.731295591635
0.723684011466
0.719755411752
0.721945303899
0.731586956066
0.748680368256
0.771892272305
0.798787156809
0.826249365274
0.851023272207
0.870278119887
0.882099829503
0.885824722304
0.882157417129
0.873052484329
0.861380280983
0.850434705902
0.843367943525
0.842649887624
0.487526605185
0.506347068683
0.531794905246
0.561300688195
0.591583512299
0.619214513993
0.641206123947
0.655525204636
0.661441384439
0.659650393364
0.652151106865
0.641897587119
0.632286312581
0.626567280217
0.627280823935
0.635817541831
0.652177433905
0.67496990206
0.701654612391
0.728981567928
0.75355429022
0.772418717087
0.783575973075
0.786330328178
0.781412154016
0.770854588114
0.757645199802
0.745212852644
0.736838451874
0.735091424167
0.405976405986
0.422088330158
0.445106293982
0.472361337876
0.500443835815
0.525789959479
0.545294927289
0.556847034544
0.559690156843
0.554552075449
0.543516462459
0.52966068451
0.516522073013
0.507484965411
0.505194518113
0.511098659149
0.525197388519
0.546042778193
0.570989671762
0.596653731782
0.619497626845
0.63644399031
0.645409150083
0.6456653249
0.637968639163
0.62443079757
0.608156581703
0.592709819882
0.581500138129
0.577196496029
0.319712404409
0.332475610855
0.352423523542
0.37678764998
0.402029643354
0.424450710589
0.440828857854
0.448973813276
0.448103699671
0.43897834956
0.423766231679
0.405668017127
0.388361890272
0.375366529033
0.369431912319
0.372063298095
0.383260686362
0.401518819154
0.424087717562
0.447448703666
0.4679235931
0.482311714764
0.488444599922
0.485562416053
0.474447040341
0.457288744659
0.437309522837
0.418208167952
0.403523026817
0.396022591924
0.230170972045
0.239967158365
0.257226717515
0.279081624097
0.301864810506
0.321742518911
0.335375543231
0.34049504442
0.33629339251
0.323562471281
0.304555546109
0.282596592554
0.26150464794
0.244932730663
0.235735642133
0.235475970249
0.244153715013
0.260206288522
0.280778889369
0.302218499156
0.320706080561
0.332917658023
0.336599966166
0.330961121211
0.316808753123
0.296411700951
0.273109170774
0.250734920425
0.232956017508
0.222640487422
0.138802841823
0.146988305895
0.162915809385
0.183617793989
0.20529847131
0.223989118765
0.236233318018
0.239683662851
0.233506770514
0.218526576044
0.19708114146
0.17261774678
0.149096282286
0.130304106849
0.11920084438
0.117406412714
0.124920811852
0.140124123958
0.160056725121
0.180931256469
0.198787827723
0.210179158861
0.212767187867
0.205727979703
0.189894917118
0.167615406333
0.14234586568
0.118055017745
0.0985386509239
0.0867643235213
0.046975693304
0.0556603392968
0.0723656912963
0.0940246580923
0.116712730496
0.136326221169
0.149291499525
0.153182592171
0.147140363578
0.132020800038
0.110246760209
0.0853888285739
0.061547748369
0.0426452189416
0.0317456867042
0.0305263994262
0.0389873571077
0.0554513119793
0.0768538176282
0.0992731747077
0.11860863998
0.131289628964
0.134893283002
0.128563615799
0.113159762887
0.0911076976591
0.0659810506993
0.0418835093474
0.022739582792
0.0116163622433
