# vtk DataFile Version 2.0
Function: z = f(x,y,z)
ASCII
DATASET STRUCTURED_POINTS
DIMENSIONS 30 30 1
ORIGIN 0 0 0
SPACING 0.05 0.05 0.05
POINT_DATA 900
SCALARS f(x,y,z) float
LOOKUP_TABLE default
0.0516457936328
0.059028241795
0.0663673863442
0.0735342009068
0.0803918238858
0.0868047485272
0.0926483496193
0.0978172519024
0.102231237624
0.105837806668
0.108611070511
0.110547282819
0.111657877505
0.111961301396
0.111475121544
0.110209823426
0.10816540704
0.105331386912
0.101690195989
0.0972233874431
0.0919195273629
0.0857823620815
0.0788377801229
0.0711382816025
0.0627640842732
0.0538205633945
0.0444323441783
0.0347349333784
0.0248651925919
0.0149521481924
0.146655975621
0.153387316929
0.160274402187
0.167117110089
0.173686635615
0.179751068614
0.185102060839
0.18957811762
0.19308062636
0.195579980699
0.197110861142
0.19775759597
0.197632228351
0.196849162593
0.195500838966
0.193638692898
0.191262724389
0.18832149801
0.184722573493
0.180351546529
0.17509637395
0.168872727475
0.161645926599
0.153445577682
0.144370293321
0.134581568185
0.124287750524
0.113720750486
0.103109373091
0.0926537396466
0.241189817865
0.249459575515
0.258084124677
0.266792249113
0.275263200381
0.283168664933
0.290216571486
0.29618930596
0.300969860914
0.304551523742
0.30702954398
0.308576324522
0.309404517792
0.309724485582
0.309703541374
0.309434070552
0.308916073114
0.308057163679
0.306690028764
0.304604306576
0.301587344694
0.29746674022
0.292147243621
0.285635567502
0.278048719304
0.269604313107
0.260594420194
0.251347354113
0.242183863305
0.233375164011
0.333828030257
0.345043683178
0.356813175174
0.368794195074
0.380574051013
0.391728026049
0.401880325859
0.410757216956
0.418223297053
0.424294747301
0.429127386264
0.432981691451
0.43617092454
0.439001404807
0.441715318949
0.444446002302
0.447193454865
0.449824341305
0.452096474921
0.453703536439
0.454332264183
0.45372218064
0.451717467249
0.448301942858
0.443611009753
0.437918401423
0.43159991219
0.425080258996
0.418772133705
0.41301784749
0.423065135229
0.437622784703
0.452933320817
0.468583337463
0.484068199357
0.498866786158
0.512519580508
0.52469672951
0.535244436034
0.544201774984
0.551785133954
0.558343065068
0.56428943926
0.570026533286
0.57587140706
0.581998345871
0.588407349719
0.594924133314
0.601231636745
0.606927583252
0.611598101904
0.614894640576
0.616600811674
0.616677540294
0.615278623565
0.612733914386
0.609502930114
0.606106791089
0.603050132598
0.600746360746
0.507410558488
0.524645868441
0.542833112596
0.561487789914
0.580013321687
0.597792184179
0.614281136994
0.629094207827
0.642059204702
0.653238096279
0.662907839181
0.671505060147
0.679544239366
0.687523611076
0.695835108407
0.704693966601
0.714100185658
0.723838530335
0.733517067504
0.742637562926
0.750685536412
0.757224361222
0.761977080735
0.764881726291
0.766110489863
0.766049343759
0.765241528374
0.764304567444
0.763835039676
0.764317446112
0.585493422704
0.603821103657
0.623299766375
0.643373814887
0.66335472706
0.682528575764
0.700268397567
0.716132100751
0.729929098499
0.741744253225
0.751915090581
0.760966311921
0.769513006688
0.778149366605
0.787342198015
0.797347686113
0.808165830901
0.819540447181
0.831004728611
0.841964483468
0.851804622309
0.86000044378
0.86621442223
0.870361695243
0.872632849637
0.87346997713
0.873500041154
0.87343696884
0.873969282318
0.875652577563
0.656154600022
0.67337204899
0.691939527288
0.711230344009
0.7304640336
0.748830265532
0.765618353338
0.78033008589
0.792756481527
0.803005296417
0.811474625243
0.818777243973
0.825628851305
0.832719596444
0.840591158949
0.849540673968
0.859568141502
0.870376426402
0.881423849108
0.892020260417
0.901449961629
0.909100176777
0.914572811179
0.917760108666
0.918871050899
0.918403849005
0.917069189453
0.915677402771
0.915008954511
0.915690535581
0.718511695159
0.732213965874
0.747465313481
0.763567952141
0.779649472877
0.794803141767
0.808234549305
0.819389364955
0.82804021221
0.834317740995
0.838680615021
0.84182968487
0.844581258496
0.847721442586
0.851866789915
0.857355385585
0.864187229595
0.872024236843
0.880249854556
0.888077976046
0.894692293359
0.899391955913
0.901718299997
0.901540675686
0.899086459487
0.894909981936
0.889805652538
0.884680205217
0.880406048949
0.877680969574
0.771987206848
0.780021184343
0.789803286293
0.800564631927
0.811340868844
0.821128859727
0.829050472032
0.834495255814
0.837217439722
0.837370567436
0.835473871696
0.832316277699
0.828814702654
0.825851210731
0.824117227919
0.823991789273
0.825474894794
0.828187509426
0.83143820718
0.834344923886
0.835990742334
0.835586737329
0.83261367613
0.826918015056
0.81874552546
0.808706657286
0.797679543077
0.786667320152
0.776634340911
0.768349486125
0.816296361324
0.817175189957
0.820001190609
0.823934387574
0.827918485031
0.830853942263
0.831778903694
0.830026799966
0.825333464885
0.817875335886
0.808232214738
0.797281101253
0.786039521895
0.775485498316
0.766385329721
0.759159001118
0.753806512507
0.749907878881
0.746696801033
0.743195257313
0.738385721255
0.731391193049
0.721631870924
0.708931317446
0.69355369881
0.676165584372
0.657728829709
0.639342975539
0.622064317681
0.606732831842
0.851397948918
0.844603593807
0.839955458277
0.836542471691
0.833216394804
0.828781283504
0.822191559177
0.812724533056
0.800097644103
0.784510223508
0.76660264207
0.747339974214
0.727840355659
0.709177765542
0.69219337628
0.677348122837
0.664642005213
0.653614088445
0.643423200113
0.632995361084
0.621212435636
0.607109349346
0.590045731413
0.569822250647
0.546721468089
0.521466072503
0.495101642505
0.468824122205
0.443781750849
0.420885599075
0.877417742668
0.863538870736
0.852005265949
0.841834762736
0.831787178429
0.820570165521
0.807054422359
0.79046114077
0.77048936487
0.747361319603
0.721777944798
0.694792389495
0.667623398669
0.641440908936
0.617160965933
0.595285454574
0.57581437486
0.558245841874
0.541663809983
0.524898342568
0.506730694656
0.486107717205
0.462328470388
0.435170729259
0.404935449703
0.372401439893
0.338698001483
0.305117481978
0.272900064048
0.243027913262
0.894558657671
0.87523946815
0.858464593338
0.843180772728
0.828055880233
0.811701164948
0.792903602184
0.770828264358
0.745155800741
0.716131330034
0.684516361093
0.651452117575
0.618257953708
0.586199763593
0.556268466079
0.529006896036
0.504415053463
0.481950103492
0.460621127272
0.439162230703
0.416254059557
0.390755390178
0.361904713708
0.329456911447
0.293731334124
0.255562909323
0.216164661731
0.176925342254
0.13917707698
0.103973126414
0.903013931506
0.880722228996
0.861173888756
0.84324455535
0.825510159266
0.806485546203
0.784873968436
0.759784378972
0.730879032238
0.698425940689
0.663247182213
0.626572055078
0.58982052277
0.554354436871
0.521239589446
0.491059765317
0.463814964485
0.438921402127
0.415313286177
0.391628765054
0.366447875273
0.338541318565
0.307087017041
0.271816958248
0.233068887757
0.191733852563
0.14910860039
0.106678285538
0.0658669775204
0.0277990317737
0.902898904405
0.880552942989
0.861149391409
0.843492799291
0.826067153703
0.807290896948
0.785783558263
0.760597971246
0.731377995481
0.698414537176
0.662590243249
0.625222486583
0.587831839919
0.551876112321
0.518495969071
0.488316144942
0.461336639935
0.436932719276
0.413963717682
0.390971826091
0.36643647176
0.339040281807
0.307900609316
0.272726548075
0.233874238502
0.192290847
0.149356844331
0.106653788191
0.0656976915142
0.027684004672
0.894213576366
0.874731610132
0.858391101295
0.843925504552
0.829726863545
0.814117217183
0.795632371666
0.773269041182
0.746652690469
0.716097119494
0.682545544202
0.647403412091
0.612291905156
0.578764789945
0.548037604953
0.52077603491
0.496980079815
0.475984054939
0.456572421787
0.437191413812
0.416219849017
0.392252279906
0.364345490531
0.332185680929
0.296147386359
0.257233892635
0.216909393555
0.176851850211
0.138669218961
0.103628045109
0.876842607159
0.862692440705
0.851882779212
0.843075982442
0.834572150616
0.824596919245
0.811602371495
0.794529102143
0.772984181083
0.747304302037
0.718493249978
0.688044547021
0.657679984415
0.629049286189
0.603442864056
0.581567352698
0.563422752113
0.54830242762
0.534915967509
0.521613647749
0.506673677089
0.488602533418
0.46639643176
0.439718678395
0.408962203427
0.37518641208
0.339939221188
0.304994995241
0.272053634017
0.242452777753
0.850592759207
0.843418591764
0.839783976845
0.838280179279
0.837115355865
0.834418738718
0.828558687967
0.818419678978
0.803590386802
0.784430398915
0.762004069322
0.73789299475
0.713919575704
0.691829493696
0.672988033653
0.65814278021
0.647293733367
0.639693308489
0.63397622065
0.628396788336
0.621132611044
0.610602092045
0.595740877334
0.576189379437
0.552358923303
0.525365033565
0.496839350093
0.468652640773
0.442596748806
0.420080409363
0.815261117408
0.815651615901
0.819780714481
0.826168583044
0.832931434967
0.838102098967
0.839965212138
0.837349130436
0.829824134069
0.817772704267
0.802319764063
0.7851349848
0.768141376238
0.753180577371
0.741692746342
0.73446641774
0.731501591563
0.732009733224
0.73455068458
0.737282806638
0.738283089636
0.735881862233
0.728954201394
0.71711762589
0.700801855514
0.681178534308
0.65996302518
0.639122499411
0.620540743625
0.605697587927
0.770721908729
0.778159038275
0.789533815471
0.80329531528
0.817467807655
0.829987717921
0.839055960131
0.843444770834
0.842706035392
0.837245128791
0.828247543093
0.817471024256
0.806939191296
0.798589640688
0.79393740379
0.793811965145
0.798213324751
0.806311998067
0.816592953737
0.827118595283
0.835865303689
0.841075332999
0.841563191149
0.836923503155
0.827604383654
0.814833596097
0.80041022643
0.78639784933
0.774772194843
0.767084188006
0.717016342837
0.730013247793
0.747146847963
0.766795123376
0.786890400563
0.805272701451
0.820059217058
0.829966064523
0.834526734365
0.834169495323
0.83014040849
0.824285294437
0.818728381436
0.815503223444
0.816199725036
0.821688320705
0.831969010453
0.846171359783
0.862705464124
0.879537769516
0.894544047687
0.905878478068
0.912294999565
0.913365343439
0.909556019171
0.902150909622
0.893032823774
0.8843617397
0.878205330869
0.876185617252
0.654429193496
0.670832758897
0.691572067076
0.714954003127
0.73881895016
0.760910526705
0.779262200745
0.792533970007
0.800240930167
0.802834243719
0.801620540785
0.798533716551
0.795798608543
0.795544728203
0.799436853319
0.808386368338
0.822393273261
0.84054618364
0.861180321686
0.882166175959
0.901278908931
0.916584625418
0.926776695297
0.931403956073
0.930951312072
0.926758765565
0.920792848571
0.915309942558
0.912469664419
0.913965129056
0.583537961975
0.600943241551
0.622883311468
0.647593961887
0.672823632495
0.696219538428
0.715731424628
0.729963169418
0.738411473625
0.7415503935
0.740747128195
0.738023647509
0.735705398225
0.736017849265
0.740700651634
0.750706139733
0.766034313561
0.785732838718
0.808062064199
0.830796521082
0.851610762584
0.868482818906
0.880045490896
0.885824722304
0.8863238123
0.882938882565
0.877720188154
0.873020513932
0.871091420213
0.873697116834
0.505225043556
0.521429434323
0.542367662993
0.566204424797
0.590596215997
0.613093848332
0.63156334371
0.644552461042
0.651539506312
0.653021429527
0.650425998867
0.645863258746
0.6417592652
0.640435444638
0.643706321276
0.65256517947
0.667012019219
0.68605355617
0.707875266103
0.730155722612
0.75046886966
0.766704662833
0.77743533395
0.782163933007
0.781412154016
0.776632238069
0.769958163257
0.763839117841
0.760618605559
0.76213193118
0.420649566094
0.434067778573
0.452418876519
0.473796460228
0.495765082541
0.515779151801
0.531620966878
0.541782167275
0.54572266413
0.543962301206
0.537989415712
0.530002126677
0.522527099393
0.517981717749
0.518255379178
0.524382317989
0.536362534181
0.553161793447
0.572890698354
0.59313186501
0.611358628126
0.625372868672
0.633686249438
0.635778926664
0.632190989208
0.62443079757
0.614716052879
0.605592346792
0.599495126468
0.59833079161
0.331182406918
0.341150105035
0.356249736182
0.374503805721
0.393384923073
0.410251093182
0.422800891884
0.429469839269
0.429699451635
0.424032466497
0.414017790094
0.40194161607
0.390431218972
0.381999940171
0.378612050316
0.381342733669
0.390191990229
0.404084635736
0.42105639954
0.43859394027
0.454069983378
0.465198335222
0.470430089562
0.469222508882
0.462134076886
0.450729273483
0.437309522837
0.424516820003
0.414878555562
0.410372224151
0.238314140323
0.24522742536
0.25747169099
0.272998347643
0.289188061315
0.303302433556
0.312956317164
0.316529112822
0.31344394198
0.304266435911
0.290606069882
0.274837112152
0.259687446522
0.247766371847
0.241113031991
0.240843561168
0.246957959379
0.258340092409
0.272950816394
0.288180832479
0.301302256863
0.309940821287
0.312487050483
0.308375313181
0.298182487927
0.28352917404
0.266800518723
0.250734920425
0.23795171315
0.230499486468
0.143550243875
0.148816594762
0.159612973805
0.173819696501
0.188725485423
0.201495538727
0.209660986172
0.211545109031
0.206552633913
0.195272085842
0.179373509117
0.16131924661
0.143937791379
0.12993439976
0.121423088832
0.119560942764
0.124347961556
0.134627061039
0.148284224134
0.162614194504
0.174788479093
0.182344735028
0.18361291801
0.178004503015
0.166114763433
0.149620417994
0.130990336935
0.113059322103
0.0985386509239
0.0895480079008
0.0483100076837
0.0541189476156
0.0656569632665
0.0807332752007
0.0965446625691
0.110159920129
0.119026454606
0.121411427862
0.116701171661
0.105507104784
0.0895598405579
0.0714097964697
0.0539860748318
0.0400898894635
0.0319101306596
0.030644832541
0.0362939951076
0.0476595842387
0.0625527096392
0.0781721574902
0.0915888254789
0.100252296119
0.102431956083
0.0975163865897
0.0861192558753
0.0699734020778
0.0516314184722
0.0340245103007
0.0199558984124
0.0116163622433
