# vtk DataFile Version 2.0
Function: z = f(x,y,z)
ASCII
DATASET STRUCTURED_POINTS
DIMENSIONS 30 30 1
ORIGIN 0 0 0
SPACING 0.05 0.05 0.05
POINT_DATA 900
SCALARS f(x,y,z) float
LOOKUP_TABLE default
0.0516457936328
0.0730486792071
0.0943389753876
0.115181213603
0.135219553701
0.154101678121
0.171503561313
0.187151227601
0.200836110829
0.212421710697
0.221840717041
0.229083389395
0.234179455931
0.2371768784
0.238121331138
0.237040076382
0.233933114132
0.228773182152
0.221514606104
0.212109424238
0.200527908381
0.186779799002
0.170932406263
0.153122230462
0.133557837758
0.112513203826
0.0903123542167
0.0673076064895
0.0438548007972
0.020289405711
0.132635538208
0.153387316929
0.17454402992
0.195585361783
0.215916419469
0.234934236587
0.25209710769
0.266985146639
0.279341960683
0.289090573282
0.296321153752
0.301252955624
0.304177291132
0.305391611483
0.305136261371
0.303544972913
0.300617746108
0.296220848841
0.290113936417
0.281999557629
0.271586400242
0.258655210726
0.243115819767
0.225045203901
0.204699755881
0.182499361847
0.158985727245
0.134761818466
0.110422528558
0.0864881729216
0.213218228822
0.235189947782
0.258084124677
0.281195597283
0.30369041965
0.324714976559
0.343509882668
0.359509341372
0.372409133324
0.38219180575
0.38910500744
0.393596985923
0.396220637497
0.397522902823
0.397938796956
0.397708521889
0.396832077623
0.395069262164
0.391985060457
0.387032531841
0.379658780018
0.369415557459
0.356055215374
0.339595206537
0.320339750295
0.298854643253
0.275899270752
0.252327248013
0.228972520985
0.206540251892
0.292181017561
0.316575431483
0.342409827005
0.368794195074
0.394655536845
0.418889588267
0.440519284104
0.458832917284
0.473478441867
0.484497928841
0.492296506473
0.497551416289
0.501077138652
0.503670103674
0.505959996773
0.50829348982
0.510670582815
0.512744603886
0.513885867618
0.513297943896
0.510166352358
0.503813851478
0.493835312989
0.480188665903
0.46322595616
0.443658890832
0.422464535155
0.400747153179
0.379579743752
0.359852315924
0.368237405414
0.395393000849
0.424506101547
0.454501851631
0.484068199357
0.511850231843
0.536653203957
0.557619498165
0.574349241929
0.586944030002
0.595966470126
0.602322797826
0.607089077527
0.611311228797
0.615813607413
0.621049355124
0.627018471931
0.633267816083
0.638973031804
0.643088199526
0.644537254824
0.642413962174
0.636155713832
0.625660915046
0.611329438354
0.594018901291
0.574924048988
0.555399794325
0.53675818905
0.520074089037
0.440113628895
0.469462700468
0.50128680097
0.534326227696
0.567029876002
0.597792184179
0.625200727198
0.648251977059
0.666498234632
0.68010061843
0.689779215674
0.696669255884
0.70210838755
0.707392019696
0.713539178455
0.721109475457
0.730102910702
0.739959872561
0.749661334899
0.757911888693
0.763373885453
0.764912095659
0.761806432091
0.753895776233
0.741627827218
0.726006113046
0.708443058744
0.690544226022
0.673860719524
0.659652241955
0.506638211011
0.536826056806
0.570006455193
0.604734856643
0.639221103612
0.671608985561
0.700268397567
0.724049901165
0.742457970628
0.755713248234
0.764693300679
0.770762351482
0.775519633196
0.780510044298
0.786947281282
0.795497425657
0.806160477423
0.818270355071
0.830613362108
0.841644600055
0.849764836361
0.853609847505
0.852302066792
0.845620851944
0.834061728689
0.81877413549
0.801388177271
0.783760064572
0.767679954935
0.75459239789
0.566820624322
0.595965019971
0.628619491876
0.663154643681
0.697541264945
0.729672496299
0.757700552924
0.78033008589
0.797017742875
0.808043689921
0.814442973199
0.817808810227
0.82000201762
0.82281698331
0.827662074152
0.835309841533
0.845760285451
0.85824085452
0.871343181887
0.88327287962
0.892169131102
0.896438718817
0.895046596592
0.887712598386
0.874980076521
0.858144379928
0.839053293424
0.819813676379
0.802454739235
0.788605878346
0.619906821954
0.645952631552
0.67602604107
0.708312807327
0.740544666982
0.770364111837
0.795705677176
0.815128103607
0.82804021221
0.834781692791
0.836545070999
0.835152558347
0.832726555516
0.831310939891
0.832508748687
0.837199003168
0.845381703335
0.856177827922
0.867984339716
0.87875736133
0.886374492084
0.889013520466
0.885481920824
0.875440003356
0.859478946979
0.839040011087
0.816188660394
0.793282403099
0.772589502544
0.755924201908
0.665403302819
0.68651059176
0.712163004285
0.740361450387
0.768598613827
0.794266337575
0.815081477023
0.829456862311
0.836753487926
0.837370567436
0.832658105967
0.824667309029
0.815782161366
0.808296029819
0.804006621962
0.803899428938
0.807974450746
0.815246196244
0.823916957858
0.831693368747
0.836191444167
0.835359978608
0.827848966944
0.813259195607
0.792229670111
0.766347560313
0.737896010824
0.709483178674
0.6836163801
0.66229470511
0.703066714794
0.717964897346
0.737925727148
0.760765267364
0.783737148858
0.80398256577
0.819000693596
0.82705845201
0.827469008907
0.820691101615
0.808232214738
0.792372547784
0.775757669559
0.76093043636
0.749883226119
0.743707999859
0.742404757578
0.744881538256
0.74914596396
0.752655178393
0.752763612749
0.747191067519
0.734430058102
0.714021847166
0.686653266819
0.654057397386
0.618735063371
0.583545070634
0.551233788311
0.523985153237
0.732861842343
0.741108234153
0.754934796877
0.771972746853
0.789236662046
0.803617087767
0.812395519616
0.813692966803
0.806774770626
0.792159192179
0.771511195539
0.747339974214
0.722552681073
0.699941661867
0.681693964888
0.669008021037
0.661883830313
0.659122961817
0.658538367255
0.657337700878
0.652613809816
0.64185750056
0.623403809035
0.596734474145
0.562584154594
0.522831841171
0.480196038275
0.437786200597
0.398587750171
0.364969470658
0.754896164242
0.756993807954
0.765189146244
0.776928548624
0.788987540162
0.798006017336
0.801047795852
0.796087974456
0.78234406785
0.760393860891
0.732059797133
0.700080064081
0.667623398669
0.6377316361
0.612786495027
0.594092876229
0.581650779707
0.574155304681
0.569224732498
0.563817227955
0.554764054118
0.539327023482
0.515683692493
0.483256276294
0.442827260182
0.396421545413
0.346975316281
0.297848676305
0.252266100421
0.212781219113
0.769343080667
0.766697019261
0.770666176097
0.778512073861
0.786771184721
0.791832756328
0.790542924492
0.780730877492
0.761566303436
0.733686510945
0.699071423049
0.66068822125
0.621967226545
0.586199763593
0.555962221406
0.532665970642
0.5163110113
0.505485972723
0.497614465899
0.48940516617
0.477427752538
0.4587150435
0.431287116027
0.394506661498
0.349203991806
0.297549918671
0.242698306281
0.188259906989
0.137698248624
0.0937518085018
0.776367721912
0.771086806591
0.772938633175
0.778999877526
0.785567958913
0.788781476155
0.785268885169
0.772713463768
0.750237073466
0.718536546646
0.679749285814
0.637071466471
0.594194993676
0.554660681544
0.521239589446
0.495449557918
0.47729058696
0.465244836035
0.456541245773
0.447639002061
0.434846199836
0.4149666636
0.385862990846
0.34683834919
0.29877087712
0.243977296821
0.185829152378
0.128187844971
0.0747559553303
0.0284568075955
0.776068651448
0.770646662975
0.772874940072
0.779645311773
0.78701614445
0.790875388092
0.787633818719
0.774828803682
0.751534377897
0.718506897511
0.678041244508
0.633562588384
0.589024418264
0.548217037716
0.51410617647
0.488316144942
0.470846943131
0.460074260623
0.453032367687
0.445930960754
0.434816550702
0.416263968031
0.387978330759
0.34920328274
0.300864789057
0.245425482358
0.186474586625
0.128124151867
0.0743158117142
0.028157737131
0.768445869274
0.765376588413
0.770475096786
0.780448376602
0.791115741333
0.798114492139
0.797637725143
0.787076897233
0.765458216729
0.733597563542
0.693947299131
0.65016158699
0.606455500309
0.566868832108
0.534561982478
0.511265731714
0.496980079815
0.489974246487
0.48708783164
0.484281042252
0.477338805134
0.462606956793
0.437633135768
0.40160146215
0.355485727616
0.301894475282
0.244634609023
0.188068827678
0.136377817776
0.0928545971086
0.75340081192
0.754793089874
0.764870680727
0.78015571986
0.796228467847
0.80847557702
0.812872463605
0.806664674024
0.788830590005
0.760245615219
0.723519590603
0.682535673649
0.641770521608
0.605513416958
0.577119430148
0.55842581135
0.549432560565
0.54830242762
0.551680342066
0.555277021425
0.554615808446
0.545813545637
0.526260392061
0.495080944047
0.453296819866
0.403662473099
0.350202487516
0.297530210788
0.25006538234
0.211285866791
0.730768349092
0.73802722884
0.754488945152
0.776490786582
0.799373960806
0.818274471324
0.82895005447
0.828500346198
0.815855901643
0.791951648238
0.759554906396
0.722777827608
0.686358653188
0.654836155068
0.631760074057
0.619074130206
0.616778323514
0.622928933932
0.63397622065
0.645381411735
0.652406265875
0.650938631577
0.63821118843
0.613289008999
0.577241538151
0.532969139931
0.484714078004
0.437340348872
0.395506744858
0.362875977407
0.700375080614
0.714003604802
0.737352489216
0.766574175588
0.796770818692
0.822827773201
0.840285095551
0.846096511233
0.839144748785
0.820424259406
0.792859842983
0.760792645005
0.729222490851
0.702937641904
0.685682509336
0.679507283076
0.684411963123
0.698346359548
0.717566061181
0.737282806638
0.752496770539
0.758866807398
0.753468117325
0.735306249121
0.70549847425
0.66709106722
0.624543971594
0.582971832702
0.547272495766
0.521293519057
0.662113527711
0.681669011983
0.711462380146
0.747461227104
0.784528654735
0.817299368879
0.841095746079
0.852725601361
0.851023836667
0.837044426958
0.813869651599
0.786069650077
0.758905831833
0.737415947707
0.725539079227
0.725431886203
0.737094368633
0.758369866711
0.785319298906
0.812904914379
0.835865303689
0.849630327349
0.851117705994
0.839273464664
0.815262701415
0.782277601222
0.744995787542
0.708782554535
0.678774800323
0.659004930002
0.616018905916
0.640230764543
0.675198030724
0.716703452538
0.759371078965
0.797584967014
0.826449813334
0.842627522484
0.844905169813
0.834396254044
0.81434053402
0.789537143223
0.765509075159
0.747543570122
0.739774380001
0.744464634482
0.761614333565
0.788960347565
0.822368924591
0.85655282435
0.885989053337
0.905878478068
0.912981339702
0.906184139514
0.886699802157
0.85786642307
0.824579305605
0.792454392754
0.766867635534
0.752036285871
0.562334567356
0.58936286573
0.627664095323
0.672836157386
0.719264048002
0.76108117535
0.793174556182
0.812060184595
0.81647730934
0.807598952904
0.788822353607
0.765175638929
0.742443386438
0.726162325884
0.720660879514
0.728308646894
0.749105628024
0.780682223339
0.81871001059
0.857652260028
0.891724394086
0.915898285281
0.926776695297
0.923186601644
0.906388755573
0.879867162985
0.848734807129
0.818858279826
0.795852584993
0.78411982138
0.501554013116
0.529343615332
0.568923672433
0.615707238842
0.663840257743
0.707205488486
0.740472267927
0.760010679697
0.764512145954
0.755209212949
0.735656598475
0.711111424011
0.68761985119
0.670968099214
0.665679260692
0.674229405067
0.69661853234
0.730370573066
0.770962434637
0.812607897851
0.849260801075
0.875664022831
0.888262845324
0.885824722304
0.869658231613
0.843393289621
0.812360559471
0.782677281812
0.760197513461
0.749508199995
0.434431290071
0.461099971763
0.500076632003
0.54658947839
0.594545401208
0.637576510977
0.670134464658
0.688443435419
0.69114701882
0.679537284876
0.657326430858
0.630000572241
0.603867454721
0.584962786955
0.578004331913
0.585574628915
0.607673677962
0.641718939731
0.682992651255
0.725459103876
0.762810551899
0.789560879847
0.80199789045
0.798829513694
0.781412154016
0.753521638251
0.720706309437
0.689334057055
0.665497990819
0.653969903131
0.361956925662
0.386149984911
0.423168546373
0.468055970819
0.514480095636
0.555822382514
0.586316808519
0.602041636351
0.601592634979
0.586321398179
0.560097602698
0.528636358009
0.498506993873
0.4759947084
0.466011934919
0.471247682631
0.491701951534
0.524685732429
0.565286591987
0.607219332098
0.643914623001
0.669657355224
0.680577852019
0.675324519608
0.655301589026
0.62443079757
0.588478168176
0.554062239152
0.527515173112
0.513793609285
0.28530239688
0.306452128313
0.340944885624
0.383639182756
0.427963804199
0.467049562813
0.494912755767
0.507485735298
0.503316443779
0.48381599875
0.453011556433
0.4168472203
0.382153904173
0.35546629562
0.341891498328
0.344224991375
0.362466774761
0.393821369408
0.433181671629
0.474012993855
0.509484422266
0.53365185339
0.542488131003
0.534582137566
0.511385930705
0.476967158186
0.437309522837
0.399282211798
0.369456440582
0.352973695243
0.205741467212
0.22418635738
0.256491797089
0.297331453459
0.339895058079
0.377062774978
0.402633221432
0.412392839214
0.404841744098
0.38145057739
0.346403974787
0.30587503376
0.266956252195
0.236431807112
0.219603472559
0.219373197492
0.235740981912
0.265804876862
0.304263108294
0.344331499188
0.378917551657
0.401848168233
0.408938713215
0.398718545301
0.372687548713
0.335059281681
0.292035126928
0.250734920425
0.217968930583
0.199063490281
0.12456063567
0.141503439294
0.172824316125
0.213012086453
0.255017428971
0.291469858879
0.315950313556
0.324099324308
0.314369180319
0.288290046653
0.250204038487
0.206513247288
0.164571755006
0.131413228115
0.112534111022
0.110942822564
0.12663936274
0.156615312715
0.195374228081
0.235882442364
0.270785873613
0.293682430362
0.300229997436
0.288898409767
0.261235378173
0.22160037135
0.176412451916
0.133042104671
0.0985386509239
0.0784132703827
0.0429727501651
0.0602845143405
0.0924918753856
0.133898806767
0.177216934277
0.214825124287
0.240086634279
0.248496085097
0.238457939327
0.211561885798
0.172307519163
0.127325924886
0.0842327689806
0.0503112073756
0.0312523548379
0.0301711000819
0.0470674431078
0.078826495201
0.119757141595
0.16257622636
0.199668083483
0.2244016275
0.232277263759
0.221705303429
0.194281283924
0.154510584403
0.109029947381
0.0654605064875
0.0310906359306
0.0116163622433
