# vtk DataFile Version 2.0
Function: z = f(x,y,z)
ASCII
DATASET STRUCTURED_POINTS
DIMENSIONS 30 30 1
ORIGIN 0 0 0
SPACING 0.05 0.05 0.05
POINT_DATA 900
SCALARS f(x,y,z) float
LOOKUP_TABLE default
0.0516457936328
0.0765537885601
0.101331872648
0.125592966777
0.148926486155
0.170925910519
0.191217364236
0.209484721526
0.225487329131
0.239067686704
0.250148128673
0.258717416039
0.264809850538
0.268480772651
0.269782883537
0.268747639622
0.265375040905
0.259633630961
0.251470708632
0.240830933436
0.227680003636
0.212029158233
0.193956062798
0.173618217677
0.15125627613
0.127186363934
0.101782356726
0.0754507747673
0.0486022028485
0.0216237200906
0.129130428855
0.153387316929
0.178111436853
0.202702424707
0.226473865433
0.24873002858
0.268845869403
0.286336903894
0.300907294263
0.312468221428
0.321123726905
0.327126795537
0.330813556828
0.332527223705
0.332545116972
0.331021542917
0.327956501538
0.323195686549
0.316461777148
0.307411560404
0.295708906815
0.281100831539
0.263483293059
0.242945110456
0.219782121522
0.194478810263
0.167660221426
0.14002208546
0.112250817425
0.0849467812404
0.206225331561
0.231622540849
0.258084124677
0.284796434326
0.310797224468
0.335101554466
0.356833210464
0.375339350225
0.390268951427
0.401601876252
0.409623873305
0.414852151273
0.417924667424
0.419472507133
0.419997610851
0.419777134723
0.41881107875
0.416822286786
0.41330881838
0.407639588157
0.399176638849
0.387402761769
0.372032208312
0.353085116295
0.330912508042
0.306167225789
0.279725483392
0.252572221488
0.225669685405
0.199831523862
0.281769264387
0.30945836856
0.338808989962
0.368794195074
0.398175908303
0.425679978822
0.450179023665
0.470851842367
0.487292228071
0.499548724226
0.508088786526
0.513693847499
0.517303692179
0.519837278391
0.522021166229
0.5242553617
0.526539864803
0.528474669532
0.529333215792
0.52819654576
0.524124874402
0.516336769188
0.504364774424
0.488160346664
0.468129692762
0.445094013184
0.420180690896
0.394663876725
0.369781646264
0.346560933032
0.354530472961
0.384835554885
0.417399296729
0.450981480173
0.484068199357
0.515096093264
0.542686609819
0.565850190328
0.584125443403
0.597629593756
0.607011804169
0.613317731015
0.617788987094
0.621632402675
0.625799157501
0.630812107437
0.636671252484
0.642853736775
0.648408380569
0.652128353595
0.652772043054
0.649293792573
0.641044439371
0.627906758734
0.610342142051
0.589340148017
0.566279328706
0.542723045134
0.520185203163
0.49990602111
0.423289396496
0.455666908475
0.490900223063
0.527535837141
0.563784014581
0.597792184179
0.627930624748
0.653041419368
0.672607992115
0.686816248968
0.696497059797
0.702960304818
0.707749424597
0.712359121851
0.717965195966
0.725213352671
0.734103591963
0.743990208117
0.753697401747
0.761730470134
0.766545972713
0.766834029268
0.761763769929
0.751149288718
0.735507161557
0.715995305367
0.694243441336
0.672104140666
0.651367139486
0.633485940915
0.486924408087
0.520077295093
0.556683127397
0.595075117082
0.63318769775
0.66887908801
0.700268397567
0.726029351269
0.74559018866
0.759205496986
0.767887853204
0.773211361372
0.777021289823
0.781100213721
0.786848552099
0.795034860543
0.805659139054
0.817952832044
0.830515520482
0.841564629202
0.849254889873
0.852012198436
0.848823977933
0.83943564112
0.824418948452
0.80510017508
0.7833602113
0.761340838505
0.741107623089
0.724327352972
0.544487130398
0.576613262716
0.612789483022
0.651135718599
0.689310572782
0.724883053991
0.75572110282
0.78033008589
0.798083058212
0.809303288297
0.815185060188
0.81756670179
0.818595309198
0.820341330027
0.824429802953
0.831752133424
0.842308321438
0.85520696155
0.868823015082
0.881086034421
0.88984892347
0.893273354327
0.890165042945
0.880200720816
0.864007332927
0.843079512659
0.819549319416
0.795847744781
0.774316185415
0.756834714037
0.595255603652
0.624387297971
0.658166222967
0.694499021123
0.730768465509
0.764254354354
0.792573459144
0.814062788269
0.82804021221
0.834897680741
0.836011184994
0.833483276717
0.829762879771
0.827208314217
0.82766923838
0.832159907564
0.84068032177
0.852216225691
0.864917961005
0.876427207651
0.884295041766
0.886418911604
0.881422826031
0.868914835274
0.849577068852
0.825072518375
0.797784412358
0.77043295257
0.745635365942
0.725485009991
0.638757326812
0.663132943614
0.692752933783
0.725310655002
0.757913050072
0.787550707037
0.811589228271
0.828197263935
0.836637499977
0.837370567436
0.831954164534
0.822755066861
0.812524026044
0.803907234592
0.798978970473
0.798876338854
0.803599339734
0.812010867948
0.822036645527
0.831030479962
0.836241619626
0.835303288928
0.826657789648
0.809844490745
0.785600706273
0.75575778607
0.722950127761
0.690187143304
0.660361889897
0.635781009857
0.674759303161
0.693162324194
0.717406861283
0.744972987312
0.772691814815
0.797264721647
0.815806141071
0.826316365021
0.828002894912
0.821395043048
0.808232214738
0.791145409416
0.773187206475
0.757291670871
0.745757700219
0.739845249544
0.739554318846
0.7436249531
0.749758254691
0.755020158663
0.756358085623
0.751141036137
0.737629604896
0.715294479596
0.684928158821
0.64853035064
0.608986621786
0.569595594407
0.533526155968
0.503298233585
0.703227815699
0.71523439424
0.733679631526
0.755830315643
0.778241728857
0.797326038833
0.809946509726
0.81393507524
0.808444052257
0.794071434346
0.772738333906
0.747339974214
0.721230762427
0.697632635948
0.67906911204
0.666922995587
0.661194286588
0.66050018016
0.662317159041
0.663423285827
0.66046415336
0.650544538364
0.63174332844
0.60346253002
0.56654982622
0.523173283338
0.476469637218
0.430026720194
0.387289250001
0.350990438554
0.724265769635
0.730357542259
0.743485116318
0.760701995097
0.778287630595
0.79236498029
0.799546139225
0.797494682877
0.785307743595
0.763651996213
0.734630260217
0.701401982728
0.667623398669
0.636804317891
0.611692877301
0.593794731643
0.583109880919
0.578132670382
0.576114963127
0.573546949302
0.566772393984
0.552631850051
0.529022498019
0.495277663052
0.452300212802
0.402426571793
0.34904464498
0.296031474887
0.247107609514
0.205219545576
0.738039186416
0.739561407039
0.748716571787
0.762344899144
0.776450010844
0.786865654173
0.789952755068
0.783206530775
0.76566892911
0.738075306173
0.702710188538
0.662997247168
0.622894544754
0.586199763593
0.555885660238
0.533580739293
0.519285000759
0.511369940031
0.506862800556
0.501965900037
0.492721175783
0.475704956831
0.448632716607
0.410769099011
0.363072156227
0.308046671008
0.249331717419
0.191093548172
0.137328541536
0.0911964790238
0.744706169514
0.74367795099
0.75087981928
0.76293870807
0.775582408825
0.784355458644
0.785367614352
0.775945734967
0.755076583773
0.723564198135
0.683874811714
0.639696319319
0.595288611403
0.554737242712
0.521239589446
0.496547006068
0.480659492578
0.471825694513
0.466848235672
0.461641561312
0.451945780977
0.434072999859
0.405556984297
0.365593696925
0.315196374461
0.257038157886
0.195009290375
0.133565234829
0.0769781997828
0.0286212515509
0.744361088209
0.743170092971
0.750806327237
0.763683439893
0.777253392137
0.786771510878
0.788096383833
0.778386511791
0.756573473501
0.723529987595
0.681903994823
0.635647613834
0.58932256285
0.547302269064
0.51300872832
0.488316144942
0.47322451893
0.46585964596
0.462799530188
0.45967074442
0.451911570437
0.435569889587
0.40799776112
0.368322466407
0.317612426696
0.258709141198
0.195754022199
0.133491742786
0.0764703417642
0.0282761702458
0.737003942501
0.738037832983
0.748496095659
0.764579094615
0.78146296078
0.794113810878
0.798139063513
0.790528861246
0.770159598294
0.737972674554
0.696797737863
0.650851130715
0.604996399097
0.563894842648
0.53119307686
0.508888155915
0.496980079815
0.493471794374
0.494716684103
0.496053449362
0.492618544164
0.480195626015
0.455955047077
0.418955407455
0.370320312931
0.313059620944
0.25156591289
0.190873072045
0.13580496748
0.0901612351086
0.72254036311
0.727818252166
0.743117656105
0.764425654214
0.786642547155
0.804445241463
0.813189986632
0.809698566995
0.792792192235
0.763480943514
0.724776175759
0.681158455306
0.637793155907
0.59962944965
0.57053857167
0.552640426013
0.545935012678
0.54830242762
0.555871435705
0.563692864844
0.566601341285
0.560116298691
0.541226382136
0.508921510459
0.464380473976
0.410781488354
0.352768304098
0.295664014675
0.244568319421
0.20349413905
0.700812246563
0.71167938811
0.733165187229
0.761043438408
0.789938612041
0.814238404476
0.829047896096
0.831020513004
0.818922280353
0.793831960568
0.758942615665
0.718999035823
0.67946842256
0.645587820411
0.621453084158
0.609306967705
0.609149471051
0.618737840293
0.63397622065
0.649627567585
0.660224679582
0.66102276646
0.648828766205
0.62256391639
0.583462191863
0.534870166522
0.481682759982
0.429512275897
0.383734243871
0.348574869418
0.671653571415
0.688591602027
0.7167454329
0.751675573723
0.787730664624
0.819009191759
0.840365066404
0.848283356432
0.841474902465
0.82108714819
0.790494862713
0.754707060057
0.719492769504
0.690376908038
0.671679950085
0.66576749941
0.672639556013
0.689930516129
0.713319905331
0.737282806638
0.756050190765
0.764613043689
0.759596596307
0.739853404929
0.706672628934
0.663569200448
0.615689208198
0.568934166025
0.528955433801
0.50019250184
0.634961432456
0.65754650541
0.691944521315
0.73350270506
0.776293866505
0.814127281619
0.841605692566
0.855045808993
0.853103286985
0.836994251499
0.810275178726
0.778219306532
0.746897491968
0.722122524461
0.708439498087
0.708336866468
0.721814629604
0.746384333872
0.777500885198
0.809351494153
0.835865303689
0.851769075936
0.853506334705
0.839860955041
0.812177280855
0.774138602503
0.73114217782
0.689378730836
0.654775451693
0.631985115501
0.590769546686
0.61778514373
0.657210826414
0.704180534829
0.752491248566
0.795663033405
0.828047462403
0.845792886974
0.847499778675
0.834452943724
0.810390565402
0.780850105419
0.75220424859
0.730553656791
0.720668043742
0.725158712926
0.744025664343
0.77465759451
0.812284789708
0.850806588059
0.883850304749
0.905878478068
0.913152924736
0.904388838532
0.880985747903
0.846795301432
0.807465926063
0.769477556017
0.739033211701
0.720998953025
0.539310910821
0.568995392438
0.611687102385
0.662306695951
0.714375322463
0.761123837511
0.796652645042
0.816941738242
0.820536404133
0.808790130201
0.785622806813
0.756836119524
0.729104580912
0.708816725304
0.700966886063
0.708289216533
0.730783716715
0.765716233264
0.808092432816
0.851523781046
0.889335765375
0.915726700247
0.926776695297
0.921132263037
0.900248116448
0.86814426234
0.830720296769
0.794745364143
0.766698315137
0.751658494461
0.481058025901
0.511443708778
0.555433762674
0.607735558081
0.661594414055
0.709951976
0.746657478751
0.767522557267
0.771037314037
0.758623917811
0.734383966045
0.704383368137
0.675598464432
0.654705661702
0.646923912957
0.655110221401
0.679264587034
0.716530006653
0.761687527247
0.808060742044
0.848673310698
0.877459323813
0.890317183931
0.885824722304
0.865491836442
0.833506891385
0.7960206523
0.760091473782
0.732474036773
0.718460970785
0.4167328517
0.446017606123
0.489503874255
0.541685741788
0.59553269751
0.643697176638
0.679777244895
0.699416179013
0.701048896947
0.686166248714
0.659051538856
0.626034900614
0.594394502101
0.571094622535
0.561578834572
0.568826991276
0.592839092647
0.630635285621
0.676771997543
0.724284949192
0.765895972459
0.795274934101
0.808138529575
0.802995908865
0.781412154016
0.747743988297
0.708393345982
0.670707791858
0.641717837134
0.626929396119
0.347283765554
0.374170536496
0.415855963837
0.466620848467
0.51915884891
0.565833190192
0.599990768929
0.617106503621
0.615560127692
0.596911172422
0.565624649444
0.528294915842
0.492501967493
0.465497956063
0.452951073855
0.457964023791
0.480536805872
0.517566717174
0.563385565396
0.61074119887
0.65205362172
0.680728476862
0.692300752664
0.685210917844
0.66107923898
0.62443079757
0.581918697
0.541179712241
0.509520184773
0.492659313704
0.27383239437
0.297777634133
0.337118672984
0.385923027015
0.436608524481
0.48124918022
0.512940721738
0.526989709306
0.521720691816
0.498761881813
0.462759998017
0.420573621357
0.380084575474
0.348832884483
0.332711360331
0.334945555801
0.355535470894
0.391255552827
0.436212989651
0.482867757252
0.523338031989
0.550765232932
0.560502641364
0.550922044737
0.52369889416
0.483526629362
0.437309522837
0.392973559747
0.358100911837
0.338624063015
0.197598298934
0.218926090385
0.256246823614
0.303414729913
0.35257180727
0.395502860333
0.425052447499
0.436358770812
0.427691194628
0.400746612759
0.360353451014
0.313634514163
0.268773453613
0.233598165928
0.214226082701
0.214005606573
0.232936737546
0.267671072976
0.31209118127
0.358369165865
0.398321375356
0.42482500497
0.433051628898
0.421304353331
0.39131381391
0.347941808591
0.298343778979
0.250734920425
0.212973234941
0.191204491235
0.119813233618
0.139675150428
0.176127151705
0.222810183942
0.271590414858
0.313963438917
0.342522645401
0.352237878127
0.34132331692
0.311544536856
0.26791167083
0.217811747458
0.169730245913
0.131782935204
0.11031186657
0.108788292514
0.127212213037
0.162112375634
0.207146729068
0.254199504329
0.294785222243
0.321516854196
0.329384267292
0.316621886455
0.285015531859
0.239595359689
0.187767980661
0.138037800312
0.0985386509239
0.0756295860031
0.0416384357854
0.0618259060218
0.0992006034154
0.147190189659
0.197385002204
0.240991425326
0.270351679198
0.280267249406
0.268897131244
0.238075581052
0.192994438815
0.141304956991
0.0917944425178
0.0528665368536
0.0310879108824
0.0300526669672
0.0497608051079
0.0866182229416
0.134058249584
0.183677243578
0.226687897984
0.255438960346
0.264738590677
0.252752532639
0.221321790936
0.175644879984
0.123379579608
0.0733195055342
0.0338743203101
0.0116163622433
