# vtk DataFile Version 2.0
Function: z = f(x,y,z)
ASCII
DATASET STRUCTURED_POINTS
DIMENSIONS 30 30 1
ORIGIN 0 0 0
SPACING 0.05 0.05 0.05
POINT_DATA 900
SCALARS f(x,y,z) float
LOOKUP_TABLE default
0.0516457936328
0.052018023089
0.0523815918225
0.0527106945588
0.0529779589783
0.0531562837304
0.0532207437725
0.0531502640529
0.0529288010209
0.0525458546534
0.0519962472458
0.0512792295312
0.0503970882921
0.049353512894
0.0481520167474
0.0467946969474
0.045281553494
0.0436104892922
0.0417779909312
0.0397803690459
0.0376153368535
0.035283643621
0.032790467053
0.0301463071727
0.0273672075306
0.0244742431786
0.021492339159
0.0184485968228
0.0153703884892
0.0122835194331
0.153666194327
0.153387316929
0.153139588321
0.152882984242
0.152571743688
0.152159484628
0.151604537414
0.150874603111
0.149949959199
0.148824684408
0.147505714837
0.146009916143
0.14435969696
0.142577938149
0.140683127764
0.138685552891
0.13658521353
0.134371822595
0.132026892032
0.12952754098
0.126851360804
0.12398148585
0.120910980015
0.117645764573
0.114205562041
0.110622671354
0.106938762163
0.103200216496
0.0994527953573
0.095736523009
0.255175612387
0.256594389381
0.258084124677
0.259590575028
0.261049590746
0.26239550912
0.263569915895
0.264529288253
0.265250224708
0.265731382738
0.265991812249
0.266065993822
0.26599645794
0.265825276962
0.265585913584
0.265296844883
0.26495807086
0.264551114437
0.264042512918
0.263390193944
0.262551627031
0.261492331601
0.260193257745
0.258655747985
0.256903203809
0.254979148034
0.252941994915
0.250857407163
0.248789534465
0.24679262007
0.354651536605
0.359277809025
0.364014849259
0.368794195074
0.373533308097
0.37814724494
0.382560846737
0.386719366792
0.390595724646
0.394193156531
0.397542826159
0.400696829031
0.403717817485
0.406667055373
0.409592980037
0.412522258543
0.415454890891
0.418364210014
0.421201778572
0.423906332711
0.426415220095
0.428676345222
0.430658544379
0.432358581336
0.43380353655
0.435048156719
0.436167600708
0.437246811904
0.438368328681
0.439600613273
0.450479000137
0.45873767663
0.467146930451
0.475624080379
0.484068199357
0.492375063316
0.500452768784
0.508235345183
0.515692033087
0.522830647475
0.529694465868
0.536353198689
0.542889620126
0.54938418553
0.555900306883
0.562472841244
0.569101788612
0.57575229193
0.582360939215
0.588847275115
0.595128525444
0.601134979777
0.606823360595
0.612185852918
0.617253216171
0.622091420933
0.626792370678
0.631460289471
0.636196104372
0.6410824966
0.541059023285
0.552237452427
0.563606268409
0.575068571024
0.586505044529
0.597792184179
0.608821341893
0.61951532321
0.629839689736
0.639806835203
0.649472150934
0.658922962279
0.668262165273
0.677589406766
0.686983073384
0.696486212174
0.706098823136
0.715777859222
0.725444933807
0.735000400043
0.744341361891
0.753380494004
0.762062405058
0.77037470132
0.778351821185
0.786070959116
0.79364076319
0.801184738155
0.808822199752
0.81665004819
0.624921028551
0.637318627082
0.649946421966
0.662693294009
0.675421538785
0.687988370866
0.700268397567
0.712173200544
0.723664662435
0.73475975572
0.745525985532
0.756068292141
0.766509693435
0.776969027759
0.787539656381
0.798272816341
0.809168507639
0.820175493236
0.831200411863
0.842124425175
0.852824515283
0.863195741918
0.873170599949
0.882732116892
0.891918410111
0.900817897951
0.909555973096
0.918275420974
0.92711394601
0.936182667399
0.700821587871
0.7120755635
0.723599544994
0.735268194174
0.746925417927
0.758409150148
0.769577253544
0.78033008589
0.790625850852
0.800486099665
0.809990451266
0.819261460847
0.828442268148
0.837670903011
0.847055701347
0.856656090186
0.866472069528
0.876444212343
0.886464182719
0.896393950816
0.906090376893
0.915430905758
0.924335918473
0.932783863805
0.940816538087
0.948533583543
0.956077137468
0.963609265967
0.97128606215
0.979232864199
0.767814131762
0.775344633035
0.783184949686
0.791195524548
0.799201875825
0.807022656732
0.81449898537
0.821519995629
0.82804021221
0.834085765097
0.839748387032
0.845168248131
0.850508609986
0.855926693934
0.86154581053
0.867433576793
0.873589992725
0.879947441304
0.886382611977
0.892738283404
0.898851193997
0.904581173637
0.909836489584
0.914591011851
0.918890215741
0.922844967361
0.926614148611
0.930379106276
0.934314322152
0.938559353407
0.825279158862
0.826776480634
0.828623427297
0.830666222697
0.832711996353
0.834560120803
0.836034969537
0.837014452566
0.837449415621
0.837370567436
0.836881754561
0.836140762035
0.835330973299
0.834628801187
0.834172530897
0.834037969441
0.834225116818
0.834658166017
0.835198831841
0.835670701455
0.835890391418
0.83570011669
0.834996030723
0.833747424781
0.832003453135
0.829886205773
0.827571309204
0.825259390892
0.823143321316
0.821376876632
0.872911184589
0.866780336262
0.861038922339
0.855518947679
0.850009153117
0.84428963051
0.838168008743
0.831510973944
0.824265692874
0.816467453021
0.808232214738
0.799735377988
0.791180448063
0.782763029294
0.774636381521
0.766884501747
0.759507389972
0.752421049193
0.74547221957
0.738465296773
0.731196775508
0.723491255813
0.715232777335
0.706386052586
0.697003914805
0.687219677864
0.677225712879
0.667241927991
0.657479582366
0.648106671145
0.910666002206
0.896351273634
0.882465788978
0.86882733411
0.855206261183
0.841363381373
0.827089578957
0.812240316183
0.796759080842
0.780685739173
0.764148365335
0.747339974214
0.730484192953
0.713795817379
0.697443081976
0.681518173738
0.666021092663
0.650859651759
0.635865616542
0.620824191186
0.605511748547
0.589735273738
0.573366692602
0.556366138898
0.538790124837
0.520783188169
0.502554444619
0.484343083009
0.466378751188
0.448843663283
0.938678531881
0.916811402127
0.895413325802
0.874287869791
0.853186997562
0.831852239613
0.810057735613
0.787647723928
0.76456201338
0.740845048959
0.71663701863
0.692148552202
0.667623398669
0.643295545354
0.619348201386
0.595881743747
0.572896172436
0.550291110471
0.527883348725
0.505438899875
0.482714014924
0.459498064067
0.435650859335
0.411127955742
0.385989544463
0.360391387133
0.334559344084
0.308751884815
0.283217045861
0.258151260336
0.957166446173
0.929510692595
0.902363801958
0.875515122162
0.848698227989
0.821635369258
0.794083941031
0.765876957791
0.736950549394
0.707353739578
0.677238830116
0.646834065738
0.61640331729
0.586199763593
0.556421588416
0.527177358733
0.498467074544
0.470182168876
0.442124457958
0.41404076297
0.385667213066
0.356775563516
0.327213512548
0.296932036422
0.265995005283
0.234569404648
0.202897839456
0.171258059886
0.139916491157
0.10908378537
0.966337036303
0.935539940198
0.905291516547
0.875366894262
0.845481259442
0.815337581226
0.78467651007
0.753319836574
0.721200011624
0.688370637711
0.654996130412
0.621322349382
0.587633287317
0.554201314534
0.521239589446
0.488864869017
0.457077153247
0.425759685172
0.394699306379
0.363623646551
0.332248712992
0.300328646047
0.267699030139
0.234306262777
0.200217893076
0.165612130434
0.130748324396
0.0959235058223
0.0614224886154
0.0274701438628
0.966314030883
0.935506082997
0.905286617077
0.875416543051
0.84559265833
0.815498651375
0.784858428035
0.753482555029
0.721299804272
0.688368357008
0.654864742619
0.621052435683
0.587235550747
0.553705649624
0.520690865371
0.488316144942
0.456581488337
0.425361948602
0.39442939268
0.363492258759
0.332246432289
0.300428438695
0.267861748594
0.234488180743
0.200378963225
0.165723529321
0.130797973184
0.0959186063528
0.0613886314142
0.0274471384425
0.957097429912
0.929409120991
0.90234910355
0.875664068527
0.849032424651
0.822118579704
0.794629694927
0.766365113156
0.737249927339
0.70734689747
0.676844666737
0.646024324641
0.61521010758
0.584712768863
0.554775416191
0.525531186508
0.496980079815
0.468988959165
0.441314716861
0.413646599591
0.385660370958
0.357074941462
0.327701667913
0.297477790318
0.26647821573
0.234903601311
0.203046785821
0.171243361478
0.139814919554
0.109014769109
0.938563504779
0.916642116121
0.895388828454
0.874536113733
0.853743992
0.832657590358
0.81096732544
0.788461316202
0.765060976622
0.740833645445
0.715980079666
0.690798983707
0.665634715818
0.640817220805
0.616604581011
0.593138123371
0.570417847887
0.54830242762
0.52653378023
0.504781960911
0.482702611411
0.459997027309
0.43646445161
0.412037545569
0.386794895208
0.360948381571
0.334807588025
0.308727387467
0.283047759855
0.258036233235
0.910504964264
0.896114273225
0.882431492691
0.869174875628
0.855986053395
0.842490872416
0.828363004715
0.813379345367
0.797457629382
0.780669774254
0.763228650786
0.745450578321
0.727700036962
0.71032616301
0.693602013451
0.677677105212
0.662551438294
0.648075495768
0.63397622065
0.619904476637
0.605495783628
0.590433822278
0.574505721786
0.557639564656
0.53991761588
0.521562980382
0.502901986137
0.484308786723
0.466141750779
0.448682625341
0.872704135806
0.866475621451
0.860994827114
0.855965786773
0.851011743104
0.845739261851
0.839805270431
0.832975440038
0.825163826711
0.816446926697
0.807049724603
0.797306154697
0.787600818931
0.778302045105
0.769697864846
0.761945985072
0.755046405783
0.748841420062
0.74304299628
0.737282806638
0.731176249184
0.72438938965
0.716697243429
0.708023314275
0.698453546146
0.688222267852
0.677672551973
0.667197832766
0.657174867555
0.647899622362
0.825026099239
0.826404051421
0.828569533133
0.831212359367
0.833937384115
0.836331892441
0.838036067156
0.83880435557
0.838547134754
0.837345479707
0.835436488841
0.833171711346
0.830955871027
0.829176487178
0.828136566072
0.828002004615
0.828772802809
0.830283063746
0.832229781153
0.834225435735
0.835865303689
0.836797835824
0.836785933727
0.835748522401
0.833775224773
0.831111593535
0.828117445874
0.825205496727
0.822770892103
0.821123817008
0.767515061298
0.774904489419
0.783121256582
0.791840958795
0.800650061362
0.809116568669
0.81686391892
0.823635335543
0.829337516641
0.834056115962
0.838040345726
0.841659370045
0.845338034574
0.849483050106
0.854412397554
0.860300163817
0.867146348896
0.874776865892
0.88287373389
0.891030242098
0.898821544862
0.905878478068
0.911951829497
0.916955945402
0.920984127678
0.924293152898
0.927259582858
0.930315413173
0.933874178536
0.938260282943
0.700476506566
0.711567705481
0.723526052952
0.736012925997
0.748596401239
0.760825202383
0.772306023026
0.782770862713
0.79212274058
0.800451889126
0.808019634374
0.815212755362
0.822476219596
0.830235929363
0.838824840221
0.84842522906
0.859037095879
0.87047816379
0.882415477234
0.894423133924
0.906056166353
0.916927795486
0.926776695297
0.935512633287
0.943232590322
0.950204566855
0.956821869292
0.963535773924
0.970778204131
0.978887782894
0.624529936405
0.636743054661
0.649863130985
0.663537323409
0.677315319872
0.690726563399
0.703361002979
0.714939414278
0.72536113746
0.734720983775
0.743292393055
0.751479759258
0.759748171742
0.768542724291
0.778211347105
0.788944507065
0.800742204171
0.813413971543
0.82661187898
0.839890832697
0.852785743338
0.864892216943
0.875936813682
0.885824722304
0.894656602644
0.902711679038
0.910400002496
0.918192129992
0.926538373589
0.935791575254
0.540621920299
0.551594165603
0.563513178488
0.576011898
0.588621623391
0.600852517009
0.612277783236
0.622606973853
0.631735750058
0.639763501852
0.646975782871
0.653794601998
0.66070517044
0.668171773479
0.676557315957
0.686060454747
0.696681189848
0.708220864389
0.720316573527
0.73250403198
0.744298028541
0.755276554326
0.765154055701
0.773831142663
0.781412154016
0.788187537978
0.794584090166
0.801091648234
0.808178912929
0.816212945204
0.44999588631
0.458026675404
0.467044041592
0.476666704932
0.486407575994
0.495757536444
0.504273046058
0.511652432736
0.517787678706
0.52278275272
0.52693532222
0.530685011011
0.534537152153
0.538975222423
0.544377101307
0.550949635668
0.558692825505
0.567399823957
0.576692751537
0.586088131467
0.595080630688
0.603230625396
0.610240448148
0.616006130192
0.620635689299
0.62443079757
0.627834995231
0.631357400612
0.635485103146
0.640599382773
0.354122411938
0.358499093396
0.363902161461
0.369936117204
0.376095482509
0.381851858366
0.386744959942
0.390461891254
0.392890955563
0.39414070037
0.394520906925
0.394488813955
0.394569876371
0.395266762446
0.39697232631
0.399901604816
0.404054597963
0.4092162689
0.414993763496
0.420884413477
0.426362763934
0.430971576138
0.434401068841
0.43654269454
0.437508149976
0.437610331131
0.437309522837
0.437134124106
0.437589613053
0.439071488606
0.254600476879
0.25574795935
0.25796163794
0.260831794734
0.263834562933
0.266422262845
0.26811786503
0.268597249626
0.267745040922
0.265674365172
0.26270711743
0.259318151348
0.256053043686
0.253433654215
0.251867811707
0.251578743007
0.252566448113
0.254607700183
0.257294670444
0.260105499125
0.262494609465
0.263987147814
0.264261219117
0.263203697121
0.260929957534
0.25776412022
0.254183214621
0.250734920425
0.247943104434
0.246217484562
0.153045047977
0.152473172495
0.153007302645
0.154223501524
0.15557951365
0.156508378651
0.15651632248
0.155268001393
0.15264436071
0.148763105436
0.143958244432
0.138722246271
0.133620809565
0.129194985582
0.125867577737
0.123870002864
0.123202260963
0.1236329352
0.12473922216
0.125980070575
0.126789781833
0.126675887361
0.125304378298
0.122557549639
0.118554456063
0.113630441316
0.108279279445
0.103067930819
0.0985386509239
0.0951153766599
0.050978636443
0.0510361642531
0.052239507207
0.0541505094176
0.056208526715
0.0578273180508
0.0584963647699
0.0578690992449
0.0558227878284
0.0524797142766
0.0481860012552
0.0434517322613
0.0388627277574
0.0349792305075
0.0322390185705
0.0308816987705
0.0309072711076
0.0320761287575
0.0339504936613
0.0359701230553
0.0375491964768
0.0381776304285
0.037509302245
0.0354219281701
0.032038241851
0.0277048109152
0.0229321540178
0.0183065122073
0.0143885296534
0.0116163622433
