# vtk DataFile Version 2.0
Function: z = f(x,y,z)
ASCII
DATASET STRUCTURED_POINTS
DIMENSIONS 30 30 1
ORIGIN 0 0 0
SPACING 0.05 0.05 0.05
POINT_DATA 900
SCALARS f(x,y,z) float
LOOKUP_TABLE default
0.0516457936328
0.0870691166192
0.122310564431
0.156828226299
0.190047283516
0.221398607715
0.250358773006
0.276485203301
0.299440984035
0.319005614725
0.335070363571
0.347619495971
0.356701034357
0.362392455404
0.364767540732
0.363870329339
0.359700821224
0.352214977391
0.341339016218
0.326995461032
0.3091362894
0.287777235923
0.263027032402
0.235106179322
0.204351591244
0.171205844258
0.136192364255
0.0998802796007
0.0628444090024
0.0256266632296
0.118615100796
0.153387316929
0.188813657652
0.224053613477
0.258146203323
0.290117404559
0.319092154541
0.344392175659
0.365603295005
0.382601165865
0.395531446363
0.404748315278
0.410722353914
0.413934060372
0.414771683776
0.413451252927
0.409972767827
0.404120199673
0.39550529934
0.383647568728
0.368076426534
0.348437693977
0.324585712935
0.29664483012
0.265029218442
0.23041715551
0.193683703967
0.155802886445
0.117735684026
0.0803226061966
0.185246639779
0.22092032005
0.258084124677
0.295598945453
0.33211763892
0.366261288185
0.39680319385
0.422829376785
0.443848405735
0.459832087758
0.471180470901
0.478617647324
0.483036757202
0.485321320064
0.486174052537
0.485982973226
0.484748082132
0.48208136065
0.47728009215
0.469460757106
0.457730215342
0.441364374698
0.419963187127
0.393554845571
0.362630781285
0.328104973399
0.29120412131
0.253307141913
0.215761178665
0.179705339773
0.250534004865
0.288107179789
0.328006478835
0.368794195074
0.408737022677
0.446051150486
0.479158242348
0.506908617613
0.528733586681
0.544701110381
0.555465626683
0.562121141128
0.565983352763
0.568338802542
0.570204674597
0.572140977338
0.574147710765
0.575664866468
0.575675260315
0.572892351353
0.566000440534
0.553905522316
0.53595315873
0.512075388947
0.482840902567
0.449399380241
0.41332915812
0.376414047363
0.340387353799
0.306686784358
0.313409675599
0.353163216995
0.396078882277
0.440420365799
0.484068199357
0.524833677527
0.560786827405
0.590542266819
0.613454047824
0.629686285019
0.640147806298
0.646302530584
0.649888715794
0.652595924309
0.655755807766
0.660100364377
0.665629594143
0.671611498851
0.676714426863
0.679248815801
0.677476407745
0.669933283772
0.65571061599
0.634644289798
0.607380253143
0.575303888196
0.540345167861
0.504692797561
0.470466245502
0.439401817329
0.372816699301
0.414279532496
0.459740489344
0.507164665477
0.554046430318
0.597792184179
0.636120317401
0.667409746292
0.690937264563
0.706963140582
0.716650592167
0.721833451621
0.724672535735
0.727260428315
0.731243248502
0.737524984312
0.746105635746
0.756081214786
0.765805602293
0.773186214459
0.776062234495
0.772599830096
0.761635783446
0.742909826175
0.717145164573
0.685962882332
0.651644589113
0.6167838846
0.583886399372
0.554987037797
0.427782999317
0.469831009955
0.516713144011
0.566095898398
0.615087480164
0.660689395358
0.700268397567
0.731967701579
0.754986842757
0.769682243243
0.777471510777
0.780558391043
0.781526259703
0.78287072199
0.78655236455
0.793647165201
0.804155123945
0.817000262962
0.830221995605
0.841324716643
0.847725050412
0.847219251229
0.838389711355
0.820880008646
0.79549060774
0.76407829385
0.729276313388
0.694083160303
0.661390627551
0.633532218217
0.477486648623
0.518557990952
0.565299456463
0.615078943352
0.664618496291
0.710514727066
0.74978275251
0.78033008589
0.801279004224
0.813082083424
0.817411321155
0.81684037648
0.814375183934
0.812914370177
0.814732989356
0.821079009097
0.831952429399
0.846105282639
0.861262514667
0.874525498823
0.882888300575
0.883777260856
0.875520382004
0.857665088106
0.831089102144
0.797884910851
0.761037397394
0.723949949987
0.689900523958
0.661521221111
0.521301948748
0.55969129723
0.604586768659
0.653057662513
0.701439861087
0.745925081906
0.783176805047
0.810866842258
0.82804021221
0.835245644588
0.834409526977
0.828475431825
0.820871852536
0.814900437196
0.813150707459
0.817042620751
0.826576177075
0.840331419
0.855718824875
0.869436746613
0.87805669081
0.878635085018
0.869245541651
0.849339331026
0.819871434471
0.783170040238
0.742571668249
0.701884600981
0.664772956138
0.634167434242
0.55881939879
0.592999999177
0.634522722277
0.680158268847
0.725856358809
0.767403815423
0.801112482014
0.824418468807
0.83628953613
0.837370567436
0.829842340237
0.817018340358
0.802749620078
0.790740848908
0.783896016005
0.783807068602
0.790474006698
0.802304883062
0.816395708535
0.829041813608
0.836392146
0.835133219887
0.823084257758
0.799600376158
0.765713814761
0.723988463341
0.678112478572
0.632299037195
0.590598419289
0.556239924096
0.589837068264
0.618754604736
0.655850263687
0.697596147155
0.739555812686
0.777111189277
0.806222483498
0.824090104055
0.829604552929
0.823506867345
0.808232214738
0.787463994314
0.765475817224
0.746375374405
0.733381122518
0.7282569986
0.73100300265
0.739855197632
0.751595126886
0.762115099473
0.767141504243
0.76299094199
0.747228245279
0.719112376886
0.679752834828
0.631949210401
0.579741297033
0.527747165729
0.480403258941
0.441237474631
0.614325735767
0.637612874499
0.669914135476
0.707403022014
0.745256929289
0.77845289203
0.802599480055
0.81466140055
0.813451897149
0.799808160849
0.776419749008
0.747339974214
0.717265006487
0.690705558192
0.671194553496
0.660667919236
0.659125655414
0.664631835189
0.673653534397
0.681680040673
0.684015183995
0.676605651775
0.656761886657
0.623646697643
0.578446841099
0.524197609839
0.465290434046
0.406748278988
0.353393749492
0.309053342241
0.632374585816
0.650448745173
0.678373026539
0.712022334513
0.746187901895
0.775441869151
0.795041169345
0.801714808142
0.79419877083
0.773426402179
0.742341649469
0.705367738667
0.667623398669
0.634022363263
0.608412024121
0.592900297885
0.587487184555
0.590064767487
0.596785655014
0.602736113342
0.60279741358
0.592546329759
0.569038914598
0.531341823328
0.480719070662
0.420441650933
0.355252631079
0.290579870632
0.231632136794
0.182534524964
0.644127503663
0.658154570372
0.682867758856
0.713843374993
0.74548648921
0.771964347709
0.788182246799
0.790633490626
0.777976806132
0.751241691857
0.713626485005
0.669924324924
0.625676499381
0.586199763593
0.555655976733
0.536325045247
0.528206969137
0.529021841955
0.534607804527
0.539648101637
0.538601445519
0.526674696823
0.500669518346
0.459556411549
0.404676649488
0.339536928019
0.269231950832
0.199594471724
0.136219420269
0.0835304905898
0.649721512319
0.661451384186
0.684703377594
0.714755199702
0.74562575856
0.771077406108
0.785663801901
0.785642548564
0.769595114695
0.738647152603
0.696251389415
0.647570877863
0.598569464582
0.554966926218
0.521239589446
0.499839350518
0.490766209435
0.491568269944
0.497769205369
0.503649239067
0.503244524399
0.491392008635
0.46463896465
0.421859740132
0.364472866483
0.29622074108
0.222549704366
0.149697404403
0.0836449331402
0.0291145834172
0.649238398491
0.66074038296
0.684600488735
0.715797824255
0.747965135197
0.774459879237
0.789484079175
0.789059636117
0.771690760314
0.738599257847
0.693492245767
0.641902690185
0.590216996609
0.54455796311
0.509716383869
0.488316144942
0.480357246327
0.483215801971
0.492101017691
0.500890095418
0.503196629643
0.493487654255
0.468056052203
0.425680017406
0.367855339612
0.298560117717
0.223592328919
0.149594515544
0.0829339319142
0.0286314695901
0.642678162182
0.656021566694
0.682559092277
0.716971248652
0.752504619121
0.782111767095
0.799643078621
0.800884753284
0.784263742989
0.75109800759
0.70534905406
0.65291976189
0.600619095461
0.554972874271
0.521086360003
0.501755428518
0.496980079815
0.503964438035
0.517603241493
0.531370670692
0.538457761252
0.532961633681
0.510920781005
0.471017243371
0.414824068874
0.34655505793
0.272359824491
0.199285805145
0.134086416591
0.0820811491084
0.62995901668
0.646893739043
0.677858582241
0.717235457278
0.757884785079
0.792354234794
0.814142555715
0.818800245906
0.804676998926
0.773186928401
0.728545931227
0.677026800276
0.625861058802
0.581977547726
0.550795996239
0.535284270003
0.535442369017
0.54830242762
0.568444716623
0.588940395101
0.602557939802
0.603024557855
0.586124352362
0.550443209698
0.497631436305
0.432138534118
0.360465753844
0.290065426335
0.228077130664
0.180118955829
0.610943938977
0.632635865917
0.669193913459
0.714701393885
0.761632565747
0.80213020393
0.829341420973
0.838581013419
0.828121416483
0.79947289756
0.75710574347
0.707662660466
0.658797730673
0.61784281644
0.590532114461
0.580005480201
0.586262913662
0.606164559376
0.63397622065
0.662366035134
0.683679920706
0.69127517111
0.680681499527
0.650388638561
0.602124152999
0.540573246297
0.472588805916
0.406028056971
0.348416740911
0.305671545451
0.58548904382
0.612355593702
0.654924263952
0.706979768131
0.760610202418
0.807553447434
0.840604978964
0.85484389203
0.848465363502
0.823075814545
0.783399921903
0.736450305211
0.690303605463
0.652694706437
0.62967227233
0.624548148412
0.637322334682
0.664682985872
0.700581437782
0.737282806638
0.766710451443
0.781851752563
0.777982033255
0.753494872352
0.710195092985
0.653003600133
0.589124918009
0.526821165993
0.474004247907
0.436889450187
0.553505146692
0.585178985691
0.633390944822
0.691627138929
0.751589501815
0.804611019838
0.843135532028
0.862006431888
0.859341637941
0.836843725125
0.799491760105
0.754668275898
0.710872472371
0.676242254726
0.657140754665
0.657051807261
0.675975412516
0.710427735354
0.754045644075
0.798691233476
0.835865303689
0.858185321699
0.860672220839
0.841623426172
0.802921019176
0.749721606346
0.689581348654
0.63116725974
0.582777405803
0.550925671997
0.515021468996
0.550448281292
0.603249213485
0.666611781701
0.731851757367
0.789897232578
0.832840409609
0.855288980445
0.85528360526
0.834623012765
0.798540659549
0.754788992008
0.712289768882
0.679583916799
0.663349034965
0.667240948258
0.691259656678
0.731749335346
0.782032385058
0.833567879185
0.877434058987
0.905878478068
0.913667679838
0.899002935588
0.863843585143
0.813581936518
0.756125787437
0.700547045808
0.6555299402
0.627886954489
0.470239941217
0.507892972562
0.56375612357
0.630718311646
0.699709145844
0.761251823995
0.80708691162
0.831586399182
0.832713688512
0.81236366209
0.77602416643
0.731817561307
0.689088164334
0.656779923565
0.64188490571
0.648230925451
0.675817982787
0.720818263038
0.776239699494
0.833138344098
0.882169879241
0.915211945145
0.926776695297
0.914969247216
0.881826199073
0.832975560405
0.776676765688
0.722406617094
0.679235505568
0.654274513704
0.419570064256
0.457743989113
0.514964033399
0.583820515798
0.654856882991
0.718191438544
0.765213111225
0.790058189977
0.790612818284
0.768868032398
0.730566068755
0.684199200514
0.639534304156
0.605918349163
0.590657869751
0.597752670402
0.627202751119
0.675008307414
0.733862805076
0.794419274621
0.846910839567
0.882845226757
0.896480199753
0.885824722304
0.852992650926
0.803847696677
0.747000930787
0.692334049691
0.64930360671
0.625319283156
0.363637536586
0.400770509202
0.457785601013
0.526974531983
0.598494586419
0.662059173622
0.708705585607
0.732334409796
0.730754531328
0.706053140226
0.664226862849
0.614137885736
0.565975644241
0.529490129273
0.51230234255
0.51858407836
0.548335336704
0.597384323292
0.658110036407
0.720762485141
0.775152234138
0.812417096861
0.826560446949
0.815495094381
0.781412154016
0.730411038433
0.671454455618
0.614828996268
0.570377376079
0.545807875082
0.30326428523
0.338232191249
0.393918216227
0.462315481411
0.533195108731
0.595865613227
0.641012650159
0.662301105428
0.657462605828
0.628680495152
0.582205789683
0.527270589342
0.474486888353
0.434007699052
0.413768490661
0.418113047272
0.447041368886
0.49620967141
0.557682485621
0.621306799186
0.676470617877
0.713941841776
0.727469454599
0.714870112552
0.678412188843
0.62443079757
0.562240283472
0.502532131511
0.455535219756
0.42925642696
0.239422386841
0.271754151591
0.325640035066
0.392774559791
0.462542685326
0.523848032443
0.56702461965
0.585501631328
0.576933435924
0.543599531002
0.492005322771
0.431752824529
0.373876589375
0.32893265107
0.30517094634
0.307107249081
0.334741559293
0.383558103081
0.445306943717
0.509432047441
0.564898861155
0.602105371559
0.614546172445
0.599941766249
0.560637784525
0.503205042889
0.437309522837
0.374047603594
0.324034325602
0.295575166334
0.173168794101
0.2031452894
0.255511903189
0.321664559276
0.390602054843
0.4508231164
0.4923101257
0.508256565605
0.496239546216
0.458634718868
0.402201879692
0.336912955369
0.274225057868
0.225097242377
0.198093913126
0.197902833816
0.224524004446
0.273269661315
0.335575400195
0.400482165897
0.456532846452
0.493755515179
0.505390375947
0.489061777421
0.447192609499
0.386589389321
0.317269735133
0.250734920425
0.197986148015
0.167627494095
0.105571027464
0.134190283827
0.186035658445
0.252204476406
0.321309372519
0.381444179031
0.422239640939
0.436653539585
0.422185726724
0.381308007464
0.321034567857
0.251707247967
0.185205718633
0.13289205647
0.103645133212
0.102324702364
0.128930763925
0.178603564392
0.242464232029
0.309150690223
0.366783268133
0.405020125697
0.416847076861
0.399792316518
0.356355992914
0.293580324706
0.221834566896
0.153024887238
0.0985386509239
0.0672785328645
0.0376354926464
0.0664500810655
0.119326787505
0.187064338333
0.257889205986
0.319490328444
0.361146813952
0.375580742332
0.360214706993
0.317616666813
0.255055197769
0.183242053303
0.114479463129
0.0605325252876
0.0305945790161
0.0296973676229
0.057840891108
0.109993406163
0.176961573551
0.24698029523
0.307747341488
0.348550958882
0.362122571434
0.345894220268
0.302443311973
0.239047766728
0.166428476289
0.0968965026743
0.0422253734487
0.0116163622433
