# vtk DataFile Version 2.0
Function: z = f(x,y,z)
ASCII
DATASET STRUCTURED_POINTS
DIMENSIONS 30 30 1
ORIGIN 0 0 0
SPACING 0.05 0.05 0.05
POINT_DATA 900
SCALARS f(x,y,z) float
LOOKUP_TABLE default
0.0516457936328
0.101089554031
0.150282153474
0.198475238995
0.244875013331
0.288695537309
0.3292139847
0.365819179
0.398045857241
0.425589518754
0.448300010101
0.466155602547
0.479222612783
0.487608032408
0.491413750326
0.490700582296
0.485468528317
0.475656772631
0.461163426333
0.441881497826
0.417744670419
0.388774672844
0.355121658542
0.317090128182
0.275145344729
0.22989848469
0.182072374293
0.132452952712
0.0818340172077
0.0309639207482
0.104594663384
0.153387316929
0.203083285384
0.252521865172
0.300375987177
0.345300572531
0.386087201392
0.421799204678
0.451864629327
0.476111758448
0.494741738973
0.508243674932
0.517267416696
0.522476509261
0.52440710618
0.523357532942
0.519327789546
0.512019550504
0.500896662263
0.485295579828
0.464566452826
0.438220177228
0.406055606102
0.368244456339
0.325358681002
0.278334949172
0.228381680689
0.176843954425
0.125048839493
0.0741570394717
0.157275050735
0.206650692318
0.258084124677
0.310002293623
0.36054485819
0.407807599811
0.450096505033
0.486149412197
0.515287678146
0.537472369766
0.553255934362
0.563638308725
0.569852876908
0.573119737305
0.574409308118
0.574257424563
0.572664086641
0.569093459135
0.562575123843
0.551888982371
0.535801650666
0.513313191937
0.483871158879
0.447514484606
0.404921812275
0.357355303545
0.306508971868
0.254287035814
0.202549836345
0.152870427653
0.208886992169
0.259638928095
0.313603130665
0.368794195074
0.422818508509
0.473212712704
0.517797200593
0.554984317942
0.583988731495
0.604904291921
0.618634746893
0.626690865966
0.630889566874
0.633007501409
0.634449352422
0.635988464857
0.637624838715
0.63858512905
0.637464653013
0.63248675881
0.621834528709
0.603997193153
0.57807100447
0.543962111992
0.502455848974
0.45513986965
0.404193781085
0.352080941546
0.301194963847
0.253521252791
0.258581945784
0.310933433141
0.367651663007
0.426338879967
0.484068199357
0.537817123212
0.584920450853
0.623465035473
0.652558853719
0.672428540037
0.684329142471
0.690282263341
0.692688354061
0.69388061982
0.695698008119
0.69915137363
0.704240716355
0.709955181619
0.714455821923
0.715409432075
0.710415560665
0.69745260537
0.675265518147
0.643627664551
0.603431067932
0.5565888751
0.505766286734
0.453985800797
0.404174301954
0.358729545621
0.305519769707
0.359096364524
0.418194177718
0.480003103259
0.541062984633
0.597792184179
0.647039907604
0.686567515525
0.715376294493
0.733825662734
0.74352196866
0.746997647358
0.74723668392
0.747128836935
0.748947318549
0.753940493168
0.76210836079
0.772202557012
0.781949869687
0.788460540226
0.788750583536
0.780287564532
0.761465134801
0.731923876116
0.692662501928
0.645919651619
0.594846119482
0.543023543177
0.493912079221
0.45032183364
0.348927787623
0.402835963104
0.463419832828
0.527456940154
0.590953856715
0.649769805155
0.700268397567
0.739885501993
0.767515714886
0.783651238252
0.790249720875
0.790354430604
0.78753288621
0.785231399683
0.786157447817
0.791796904745
0.802149770468
0.815730170852
0.829830629102
0.84100483323
0.845685264463
0.840828654954
0.824477355917
0.796139165348
0.756919486792
0.709382452209
0.657164449504
0.604406256035
0.555101300168
0.512472038544
0.388152672924
0.441150961933
0.501979421051
0.567003243024
0.631695727637
0.691356957833
0.741864952096
0.78033008589
0.805540265572
0.818120476928
0.82037966911
0.815871942733
0.808748350249
0.803011757043
0.80180390456
0.806848176662
0.818144573348
0.833969710757
0.851181847446
0.865778118026
0.873607470047
0.871115802896
0.855994167417
0.827617577827
0.787198127767
0.737625441774
0.683021501365
0.628086223595
0.577346308681
0.534436563876
0.422697075542
0.473429962907
0.533147496248
0.597802517699
0.662335055193
0.721486051976
0.770647932918
0.806605580909
0.82804021221
0.835709596384
0.832273982956
0.821798305302
0.809017149555
0.798489934501
0.79379266623
0.796886238335
0.807770650815
0.824485010079
0.843453310034
0.860116131897
0.869738889535
0.86825664957
0.853009162479
0.823238658697
0.780263921963
0.727300069389
0.668954676105
0.610486798864
0.556956409732
0.512410666576
0.452235494762
0.499489406594
0.556882440269
0.619955087306
0.683114103791
0.740541293272
0.787143487005
0.819380075304
0.835825584333
0.837370567436
0.827026574507
0.809369371688
0.78971707879
0.773185667996
0.763785410049
0.763714708266
0.77297356265
0.789363569879
0.808874459213
0.826390258469
0.836592847833
0.834906461166
0.818319548572
0.785941556709
0.739197959412
0.681629366368
0.618328946319
0.555114895716
0.497580458478
0.450185143081
0.476607421734
0.519544312126
0.573774800227
0.634427026945
0.695374476514
0.750239812784
0.7934442734
0.821121756099
0.83174009695
0.826322633075
0.808232214738
0.782555440845
0.755193964888
0.731820312449
0.716879018917
0.712805997341
0.719601247721
0.734828857008
0.754044289812
0.771575020553
0.781519395737
0.778790816461
0.760026432457
0.724202906605
0.672852402837
0.609841023415
0.540747530694
0.471949260824
0.40957272957
0.358489796026
0.495789629191
0.534117514845
0.584893474075
0.642833297176
0.701277196531
0.753288696293
0.792803440494
0.815629834296
0.820129023671
0.80745712952
0.781328302478
0.747339974214
0.7119773319
0.681469454518
0.660695142103
0.652327817436
0.656367480514
0.670140708561
0.688768701539
0.706022380467
0.715416558174
0.71135380299
0.690119964279
0.650558921141
0.594309527604
0.525563378507
0.450384829816
0.37571035738
0.308199748814
0.253137213824
0.50985300739
0.543903682391
0.591556906834
0.647116120402
0.703388263628
0.752877720966
0.789034542837
0.807341641827
0.80605347381
0.786458943468
0.752623501804
0.710655413254
0.667623398669
0.630313090427
0.604037553215
0.59170771954
0.593323589402
0.605974230294
0.624346577529
0.64165499873
0.650830773043
0.645765636036
0.622394136702
0.579427370363
0.518610881142
0.444461756453
0.363529945877
0.283311064959
0.210998173167
0.152287830815
0.518911926659
0.549612121483
0.595069341615
0.649174676126
0.704201793698
0.752095939089
0.785821569106
0.800536103759
0.794387308827
0.768796872768
0.72818154696
0.679160428599
0.629385772218
0.586199763593
0.555349732059
0.539984119853
0.540102926974
0.552557711187
0.571601143155
0.589891037104
0.5997751385
0.594634350146
0.570051920665
0.5246061616
0.460149307171
0.381523937367
0.295765595382
0.210929036459
0.134740591914
0.0733091726777
0.523075302725
0.551815961782
0.596468122013
0.650510521878
0.705683558207
0.753373336061
0.786058718634
0.798571633361
0.788953155923
0.758757758559
0.712753493017
0.658070289255
0.602943935488
0.555273170891
0.521239589446
0.504229143119
0.50424183191
0.517891703853
0.538997164966
0.559659476073
0.571642848961
0.567817353671
0.543414938454
0.496881131073
0.430174855846
0.348464185338
0.259270256354
0.171206963836
0.0925339109501
0.0297723592389
0.522408145535
0.550834102946
0.596326037397
0.651950336736
0.708914125944
0.758044370381
0.791334339631
0.803290468553
0.791847142731
0.758691618183
0.708943247026
0.650242791985
0.591409574954
0.540898888504
0.505326591269
0.488316144942
0.489867549523
0.506357343318
0.531169667696
0.555849230082
0.571576708585
0.570711340478
0.548133773646
0.502156752071
0.434845890167
0.351694753075
0.260710071213
0.17106487922
0.0915520521142
0.0291052020491
0.51691045509
0.546666544975
0.594643087768
0.653494120702
0.713893496908
0.766109042051
0.801648432098
0.814692609335
0.80306926925
0.768598451638
0.716750808988
0.655677936789
0.594782690614
0.543076916433
0.507610737528
0.492245125322
0.496980079815
0.517954629583
0.548118651346
0.578460299132
0.599576717369
0.603316310568
0.584208426241
0.540433024592
0.474162410132
0.391215640577
0.300085039958
0.210502782612
0.131795015406
0.0713077011082
0.506517221441
0.538994388212
0.590846483756
0.654315194696
0.719541102311
0.776232892568
0.815412647824
0.830935817787
0.820523407848
0.786128241584
0.733572271851
0.671517926904
0.609951595995
0.558441678494
0.52447256233
0.512142728655
0.521452177469
0.54830242762
0.58520909118
0.622603768777
0.650500071159
0.660235570073
0.645988312662
0.60580547535
0.541966052744
0.460614595136
0.370729020171
0.282600641882
0.206088878987
0.148952044866
0.491119528862
0.527244502994
0.583898881766
0.652912001187
0.723891170687
0.785985936536
0.829732787476
0.84866168064
0.840386931324
0.806994146882
0.754656580544
0.692547493324
0.631236808158
0.580849477812
0.549304154865
0.540936830197
0.555747503809
0.589400184819
0.63397622065
0.679350658533
0.714953575536
0.731611710643
0.723151810623
0.687488268123
0.627006767847
0.548177352663
0.460463533828
0.374715765071
0.301326736963
0.248467113495
0.470603007025
0.510707582603
0.572496038687
0.647385360674
0.724449586144
0.792279121668
0.840924862376
0.863591272827
0.857785978218
0.825727369684
0.773940000823
0.712107965416
0.651384720076
0.602451770971
0.573662035324
0.569589013748
0.590232706242
0.631019612196
0.683596814383
0.737282806638
0.780924132346
0.804836697728
0.802495949185
0.771683495582
0.714891711721
0.638916133045
0.553705864423
0.470670499284
0.400736000047
0.352485381317
0.444896765673
0.488688959399
0.555319509498
0.635793050753
0.718650348895
0.791922670796
0.845175317976
0.871287262416
0.867659439216
0.836643023292
0.785113868611
0.723266901719
0.662839112908
0.615068561745
0.588742430102
0.58867172832
0.614856456399
0.662485603998
0.722771989244
0.784477552572
0.835865303689
0.866740316049
0.870226735684
0.843973387681
0.790579336937
0.717165611471
0.634166909765
0.553551964946
0.486780011283
0.442846413993
0.414024032075
0.460665798041
0.531300396246
0.616520110863
0.704332435769
0.782209498141
0.839231005885
0.867950438405
0.865662040708
0.834849771486
0.782740785078
0.720040840793
0.659070462605
0.611624263476
0.58692368993
0.590017262034
0.62090497979
0.674538323128
0.741695845526
0.81058293402
0.868879064637
0.905878478068
0.914354019974
0.891821731663
0.840987368129
0.769297449966
0.687672269269
0.608639698862
0.544192244865
0.503737623108
0.378145315077
0.426423079394
0.499848151817
0.588600465905
0.680154243687
0.76142247264
0.820999267058
0.85111261377
0.848950067685
0.817128371276
0.763225979252
0.698459483685
0.635732942229
0.587397521245
0.563108931905
0.568153204007
0.602530337551
0.660954302738
0.733769388397
0.808624428168
0.872615364396
0.914525605009
0.926776695297
0.906751892788
0.857263642574
0.786083957824
0.704618724247
0.625954954362
0.562618426143
0.524429206029
0.337586115396
0.386144362894
0.461004394364
0.551933792753
0.645873508239
0.729177388602
0.789953954523
0.820105700257
0.816713490614
0.782526851847
0.725475539035
0.657286977016
0.591448757121
0.540868599113
0.515636478809
0.521275935737
0.557786969897
0.619646041763
0.696763175514
0.77623065139
0.844560878058
0.890026430682
0.904697554181
0.885824722304
0.836327070239
0.764302103733
0.681641302104
0.601990817571
0.538409699958
0.501130366317
0.2928437831
0.340441046642
0.415494570023
0.507359585576
0.602443771629
0.686541836267
0.747276706555
0.776225384173
0.770362043836
0.732568995575
0.67112729484
0.598275199231
0.528083833762
0.474017471591
0.446600353187
0.451593527805
0.488996995446
0.553049706853
0.633227421559
0.716065866405
0.787493916377
0.835273313875
0.851123003449
0.832160675068
0.781412154016
0.707300438616
0.622202601799
0.540323935482
0.475256761339
0.437645847034
0.244571644798
0.290314397587
0.364667886081
0.456574992002
0.551910121827
0.635908843941
0.695708491799
0.722560574505
0.713332576677
0.671039592125
0.604313976669
0.525904820674
0.450466782833
0.392020689704
0.361525046403
0.364978411914
0.402380786239
0.467733610391
0.550078379255
0.635394266273
0.709026612752
0.758226328328
0.774361057179
0.754415705497
0.701522788661
0.62443079757
0.536002398769
0.451002023871
0.3835552664
0.344719244635
0.193542376803
0.23705617487
0.310335184508
0.401909936826
0.497121566453
0.580646502074
0.639136483533
0.663517527357
0.650550428069
0.603383063255
0.530999089109
0.446658428759
0.365599274577
0.30239900652
0.268450394352
0.269989506787
0.307016343825
0.373294836753
0.457432215805
0.544851101027
0.620313300043
0.670558889727
0.686604213886
0.665301394933
0.609889638344
0.529442927593
0.437309522837
0.348812995389
0.278612210621
0.238176637425
0.14059612099
0.18210422142
0.254532009289
0.345997665092
0.441309051606
0.524583457822
0.581987029968
0.604120291997
0.587637348334
0.535818860347
0.457999784597
0.367950876977
0.281493863541
0.213762677642
0.176584353694
0.176432470139
0.213307026979
0.280734445768
0.366887692096
0.456632832606
0.534148141247
0.585662862125
0.601842038679
0.579405009541
0.521697670286
0.438119496961
0.342504343338
0.250734920425
0.178003365448
0.136191497908
0.086581419259
0.12687712836
0.199247000765
0.291396866359
0.387601316067
0.471418499183
0.528528968322
0.549207754862
0.53000227313
0.474325968275
0.391865097228
0.296901248645
0.20583968226
0.134370884825
0.0947561554026
0.0937065821642
0.13122216511
0.200591816068
0.289554235976
0.382418938082
0.462780662653
0.516357821032
0.533464156286
0.51068622327
0.451476607654
0.365560278061
0.267256681876
0.173007669806
0.0985386509239
0.0561437953464
0.0322982351278
0.0726156477904
0.146161699624
0.2402298699
0.338561477694
0.424155532601
0.482206993625
0.502665399567
0.481971474659
0.423671447828
0.337802876374
0.23915818172
0.144726157278
0.0707538431997
0.0299368031944
0.0292236351639
0.0686143391082
0.141160317126
0.234166005506
0.3313843641
0.415826599492
0.472700290263
0.49196787911
0.470083137107
0.410605340021
0.323584949053
0.223827005198
0.128332498861
0.0533601109669
0.0116163622433
