# vtk DataFile Version 2.0
Function: z = f(x,y,z)
ASCII
DATASET STRUCTURED_POINTS
DIMENSIONS 30 30 1
ORIGIN 0 0 0
SPACING 0.05 0.05 0.05
POINT_DATA 900
SCALARS f(x,y,z) float
LOOKUP_TABLE default
0.0516457936328
0.0940793353252
0.136296358953
0.177651732647
0.217461148423
0.255047072512
0.289786378853
0.32115219115
0.348743420638
0.37229756674
0.391685186836
0.406887549259
0.41796182357
0.425000243906
0.428090645529
0.427285455817
0.422584674771
0.413935875011
0.401251221276
0.384438479429
0.363440479909
0.338275954384
0.309074345472
0.276098153752
0.239748467986
0.200552164474
0.159132369274
0.116166616156
0.0723392131051
0.0282952919889
0.11160488209
0.153387316929
0.195948471518
0.238287739325
0.27926109525
0.317708988545
0.352589677966
0.383095690168
0.408733962166
0.429356462157
0.445136592668
0.456495995105
0.463994885305
0.468205284816
0.469589394978
0.468404392935
0.464650278686
0.458069875088
0.448200980802
0.434471574278
0.41632143968
0.393328935603
0.365320659519
0.33244464323
0.295193949722
0.254376052341
0.211032692328
0.166323420435
0.121392261759
0.0772398228342
0.171260845257
0.213785506184
0.258084124677
0.302800619538
0.346331248555
0.387034443998
0.423449849442
0.454489394491
0.47956804194
0.498652228762
0.512218202631
0.521127978024
0.526444817055
0.529220528684
0.530291680327
0.530120198895
0.528706084387
0.525587409892
0.519927607996
0.510674869738
0.496765933004
0.477338783317
0.451917173003
0.420534665088
0.38377629678
0.342730138472
0.298856546589
0.253797088864
0.209155507505
0.166287883713
0.229710498517
0.273873053942
0.32080480475
0.368794195074
0.415777765593
0.459631931595
0.49847772147
0.530946467777
0.556361159088
0.574802701151
0.587050186788
0.594406003547
0.598436459818
0.600673151975
0.602327013509
0.604064721098
0.60588627474
0.607124997759
0.606569956664
0.602689555081
0.593917484621
0.578951357735
0.5570120816
0.52801875047
0.492648375771
0.452269624945
0.408761469603
0.364247494454
0.320791158823
0.280104018574
0.285995810692
0.332048325068
0.381865272642
0.433379622883
0.484068199357
0.531325400369
0.572853639129
0.607003651146
0.633006450771
0.651057412528
0.662238474385
0.668292396962
0.671288534927
0.673238272065
0.675726907942
0.679625869004
0.684935155249
0.690783340235
0.695585124393
0.697329123938
0.693945984205
0.683692944571
0.665488067068
0.639135977175
0.605405660538
0.565946381648
0.523055727298
0.479339299179
0.437320273728
0.399065681475
0.339168234504
0.38668794851
0.438967333531
0.493583884368
0.547554707475
0.597792184179
0.641580112502
0.676988630909
0.703156779528
0.720394401658
0.730086280414
0.73441554949
0.735954609828
0.737194632625
0.740095283526
0.74573273874
0.754106998268
0.764141885899
0.77387773599
0.780823377343
0.782406409015
0.776443697314
0.761550459123
0.737416851146
0.70490383325
0.665941266976
0.623245354297
0.579903713889
0.538899239296
0.502654435719
0.38835539347
0.43633348653
0.490066488419
0.546776419276
0.60302066844
0.655229600256
0.700268397567
0.735926601786
0.761251278822
0.776666740748
0.783860615826
0.785456410823
0.784529572957
0.784051060837
0.786354906183
0.792722034973
0.803152447207
0.816365216907
0.830026312353
0.841164774936
0.846705157438
0.844023953092
0.831433533636
0.808509586997
0.776205047266
0.73673037303
0.693220381446
0.649244708169
0.60824596386
0.57300212838
0.432819660774
0.479854476442
0.533639438757
0.591041093188
0.648157111964
0.70093584245
0.745823852303
0.78033008589
0.803409634898
0.815601280176
0.818895495132
0.816356159606
0.811561767091
0.80796306361
0.808268446958
0.813963592879
0.825048501374
0.840037496698
0.856222181056
0.870151808425
0.878247885311
0.877446531876
0.865757274711
0.842641332966
0.809143614956
0.767755176313
0.72202944938
0.676018086791
0.633623416319
0.597978892494
0.471999512145
0.516560630068
0.568867132454
0.625430090106
0.68188745814
0.733705566941
0.776912368983
0.808736211584
0.82804021221
0.835477620486
0.833341754967
0.825136868563
0.814944501046
0.806695185848
0.803471686844
0.806964429543
0.817173413945
0.832408214539
0.849586067455
0.864776439255
0.873897790172
0.873445867294
0.861127352065
0.836288994862
0.800067678217
0.755235054814
0.705763172177
0.656185699923
0.610864682935
0.573289050409
0.505527446776
0.546244702885
0.595702581273
0.650056678077
0.7044852313
0.753972554348
0.794127984509
0.821899272055
0.836057560231
0.837370567436
0.828434457372
0.813193856023
0.796233349434
0.781963258452
0.773840713027
0.773760888434
0.781723784674
0.79583422647
0.812635083874
0.827716036038
0.836492496917
0.835019840527
0.820701903165
0.792770966434
0.752455887087
0.702808914854
0.648220712445
0.593706966456
0.544089438883
0.503212533588
0.533222244999
0.569149458431
0.614812531957
0.66601158705
0.7174651446
0.76367550103
0.799833378449
0.822605930077
0.830672324939
0.82491475021
0.808232214738
0.78500971758
0.760334891056
0.739097843427
0.725130070717
0.72053149797
0.725302125185
0.73734202732
0.752819708349
0.766845060013
0.77433044999
0.770890879225
0.753627338868
0.721657641746
0.676302618833
0.620895116908
0.560244413863
0.499848213276
0.444987994255
0.399863635329
0.555057682479
0.585865194672
0.627403804775
0.675118159595
0.72326706291
0.765870794161
0.797701460274
0.815145617423
0.81679046041
0.803632645185
0.778874025743
0.747339974214
0.714621169194
0.686087506355
0.665944847799
0.656497868336
0.657746567964
0.667386271875
0.681211117968
0.69385121057
0.699715871084
0.693979727382
0.673440925468
0.637102809392
0.586378184352
0.524880494173
0.457837631931
0.391229318184
0.330796749153
0.281095278033
0.571113796603
0.597176213782
0.634964966686
0.679569227458
0.724788082761
0.764159795059
0.792037856091
0.804528224984
0.80012612232
0.779942672823
0.747482575637
0.708011575961
0.667623398669
0.632167726845
0.606224788668
0.592304008712
0.590405386978
0.598019498891
0.610566116271
0.622195556036
0.626814093312
0.619155982897
0.59571652565
0.555384596845
0.499664975902
0.432451703693
0.359391288478
0.286945467796
0.22131515498
0.16741117789
0.581519715161
0.603883345928
0.638968550235
0.68150902556
0.724844141454
0.762030143399
0.787001907953
0.795584797192
0.786182057479
0.760019282313
0.720904015982
0.674542376762
0.6275311358
0.586199763593
0.555502854396
0.53815458255
0.534154948056
0.540789776571
0.553104473841
0.56476956937
0.569188292009
0.560654523484
0.535360719506
0.492081286574
0.432412978329
0.360530432693
0.282498773107
0.205261754091
0.135480006092
0.0784198316337
0.586398407522
0.606633672984
0.640585749804
0.68263286079
0.725654658383
0.762225371085
0.785861260268
0.792107090963
0.779274135309
0.748702455581
0.704502441216
0.652820583559
0.600756700035
0.555120048554
0.521239589446
0.502034246818
0.497504020672
0.504729986899
0.518383185168
0.53165435757
0.53744368668
0.529604681153
0.504026951552
0.459370435602
0.397323861165
0.322342463209
0.24090998036
0.16045218412
0.0880894220451
0.0294434713281
0.585823272013
0.605787242953
0.640463263066
0.683874080496
0.72843963057
0.766252124809
0.790409209403
0.796175052335
0.781768951522
0.748645438015
0.701217746396
0.646072741085
0.590813285781
0.542728425807
0.507521487569
0.488316144942
0.485112397925
0.494786572645
0.511635342693
0.52836966275
0.537386669114
0.532099497367
0.508094912925
0.463918384738
0.401350614889
0.325127435396
0.242151200066
0.160329697382
0.0872429920142
0.0288683358196
0.579794308636
0.601344055835
0.638601090023
0.685232684677
0.733199058014
0.774110404573
0.80064575536
0.80778868131
0.793666506119
0.759848229614
0.711049931524
0.65429884934
0.597700893038
0.549024895352
0.514348548766
0.49700027692
0.496980079815
0.510959533809
0.532860946419
0.554915484912
0.569017239311
0.568138972124
0.547564603623
0.505725133982
0.444493239503
0.368885349253
0.286222432225
0.204894293878
0.132940715999
0.0766944251083
0.56823811906
0.592944063627
0.634352532999
0.685775325987
0.738712943695
0.784293563681
0.81477760177
0.824868031846
0.812600203387
0.779657584992
0.731059101539
0.67427236359
0.617906327399
0.57020961311
0.537634279285
0.523713499329
0.528447273243
0.54830242762
0.576826903901
0.605772081939
0.626529005481
0.631630063964
0.616056332512
0.578124342524
0.519798744524
0.446376564627
0.365597387008
0.286333034108
0.217083004825
0.164535500347
0.551031733919
0.579940184456
0.626546397613
0.683806697536
0.742761868217
0.794058070233
0.829537104224
0.84362134703
0.834254173904
0.803233522221
0.755881162007
0.700105076895
0.645017269415
0.599346147126
0.569918134663
0.560471155199
0.571005208735
0.597782372097
0.63397622065
0.670858346834
0.699316748121
0.711443440876
0.701916655075
0.668938453342
0.614565460423
0.54437529948
0.466526169872
0.390371911021
0.324871738937
0.277069329473
0.528046025422
0.561531588152
0.613710151319
0.677182564402
0.742529894281
0.799916284551
0.84076492067
0.859217582429
0.85312567086
0.824401592114
0.778669961363
0.724279135313
0.67084416277
0.627573238704
0.601667153827
0.59706858108
0.613777520462
0.647851299034
0.692089126083
0.737282806638
0.773817291895
0.793344225146
0.79023899122
0.762589183967
0.712543402353
0.645959866589
0.571415391216
0.498745832638
0.437370123977
0.394687415752
0.499200956183
0.536933972545
0.59435522716
0.663710094841
0.735119925355
0.798266845317
0.844155425002
0.866646847152
0.863500538579
0.836743374208
0.792302814358
0.738967588808
0.68685579264
0.645655408235
0.622941592383
0.622861767791
0.645415934457
0.686456669676
0.73840881666
0.791584393024
0.835865303689
0.862462818874
0.865449478262
0.842798406927
0.796750178056
0.733443608909
0.661874129209
0.592359612343
0.534778708543
0.496886042995
0.464522750535
0.505557039666
0.567274804866
0.641565946282
0.718092096568
0.786053365359
0.836035707747
0.861619709425
0.860472822984
0.834736392125
0.790640722314
0.737414916401
0.685680115743
0.645604090138
0.625136362447
0.628629105146
0.656082318234
0.703143829237
0.761864115292
0.822075406602
0.873156561812
0.905878478068
0.914010849906
0.895412333626
0.852415476636
0.791439693242
0.721899028353
0.654593372335
0.599861092533
0.565812288799
0.424192628147
0.467158025978
0.531802137694
0.609659388776
0.689931694766
0.761337148317
0.814043089339
0.841349506476
0.840831878099
0.814746016683
0.769625072841
0.715138522496
0.662410553281
0.622088722405
0.602496918808
0.608192064729
0.639174160169
0.690886282888
0.755004543945
0.820881386133
0.877392621818
0.914868775077
0.926776695297
0.910860570002
0.869544920823
0.809529759114
0.740647744967
0.674180785728
0.620926965855
0.589351859867
0.378578089826
0.421944176004
0.487984213881
0.567877154275
0.650365195615
0.723684413573
0.777583532874
0.805081945117
0.803663154449
0.775697442122
0.728020803895
0.670743088765
0.615491530639
0.573393474138
0.55314717428
0.55951430307
0.592494860508
0.647327174589
0.715312990295
0.785324963005
0.845735858812
0.886435828719
0.900588876967
0.885824722304
0.844659860583
0.784074900205
0.714321116445
0.647162433631
0.593856653334
0.563224824736
0.328240659843
0.370605777922
0.436640085518
0.517167058779
0.600469179024
0.674300504944
0.727991146081
0.754279896984
0.750558287582
0.7193110679
0.667677078844
0.606206542483
0.547029739001
0.501753800432
0.479451347868
0.485088803083
0.518666166075
0.575217015073
0.645668728983
0.718414175773
0.781323075258
0.823845205368
0.838841725199
0.823827884724
0.781412154016
0.718855738524
0.646828528708
0.577576465875
0.522817068709
0.491726861058
0.273917965014
0.314273294418
0.379293051154
0.459445236706
0.542552615279
0.615887228584
0.668360570979
0.692430839967
0.685397591253
0.649860043638
0.593259883176
0.526587705008
0.462476835593
0.413014194378
0.387646768532
0.391545729593
0.424711077563
0.4819716409
0.553880432438
0.628350532729
0.692748615315
0.736084085052
0.750915255889
0.734642909025
0.689967488752
0.62443079757
0.54912134112
0.476767077691
0.419545243078
0.386987835797
0.216482381822
0.254405163231
0.317987609787
0.397342248309
0.479832125889
0.552247267259
0.603080551592
0.624509579343
0.613741931996
0.573491297129
0.51150220594
0.439205626644
0.369737931976
0.315665828795
0.286810670346
0.288548377934
0.320878951559
0.378426469917
0.451369579761
0.527141574234
0.592606080599
0.636332130643
0.650575193165
0.632621580591
0.585263711434
0.516323985241
0.437309522837
0.361430299491
0.301323268112
0.26687590188
0.156882457545
0.19262475541
0.255021956239
0.333831112184
0.415955553225
0.487703287111
0.537148577834
0.556188428801
0.541938447275
0.497226789608
0.430100832145
0.352431916173
0.277859460705
0.21942996001
0.18733913341
0.187167651977
0.218915515712
0.277002053542
0.351231546145
0.428557499252
0.495340493849
0.539709188652
0.553616207313
0.534233393481
0.484445139893
0.412354443141
0.329887039235
0.250734920425
0.187994756731
0.151909496001
0.0960762233616
0.130533706093
0.192641329605
0.271800671382
0.354455344293
0.426431339107
0.475384304631
0.492930647223
0.476093999927
0.427816987869
0.356449832543
0.274304248306
0.195522700446
0.133631470648
0.0992006443075
0.0980156422642
0.130076464518
0.18959769023
0.266009234002
0.345784814153
0.414781965393
0.460688973364
0.475155616574
0.455239269894
0.403916300284
0.329570301384
0.244545624386
0.163016278522
0.0985386509239
0.0617111641055
0.0349668638871
0.069532864428
0.132744243564
0.213647104117
0.29822534184
0.371822930522
0.421676903789
0.43912307095
0.421093090826
0.37064405732
0.296429037072
0.211200117512
0.129602810204
0.0656431842437
0.0302656911052
0.0294605013934
0.0632276151081
0.125576861645
0.205563789529
0.289182329665
0.36178697049
0.410625624572
0.427045225272
0.407988678687
0.356524325997
0.281316357891
0.195127740744
0.112614500768
0.0477927422078
0.0116163622433
