# vtk DataFile Version 2.0
Function: z = f(x,y,z)
ASCII
DATASET STRUCTURED_POINTS
DIMENSIONS 30 30 1
ORIGIN 0 0 0
SPACING 0.05 0.05 0.05
POINT_DATA 900
SCALARS f(x,y,z) float
LOOKUP_TABLE default
0.0516457936328
0.0905742259722
0.129303461692
0.167239979473
0.203754215969
0.238222840113
0.27007257593
0.298818697225
0.324092202337
0.345651590733
0.363377775203
0.377253522615
0.387331428964
0.393696349655
0.396429093131
0.395577892578
0.391142747998
0.383075426201
0.371295118747
0.355716970231
0.336288384655
0.313026595154
0.286050688937
0.255602166537
0.222050029615
0.185879004366
0.147662366765
0.108023447878
0.0675918110537
0.0269609776092
0.115109991443
0.153387316929
0.192381064585
0.231170676401
0.268703649287
0.303913196552
0.335840916254
0.363743932913
0.387168628585
0.405978814011
0.420334019515
0.430622155191
0.437358619609
0.441069672594
0.442180539377
0.440927822931
0.437311523257
0.43109503738
0.421853140071
0.409059571503
0.392198933107
0.37088331479
0.344953186227
0.314544736675
0.280111584082
0.242396603925
0.202358198148
0.16106315344
0.119563972892
0.0787812145154
0.178253742518
0.217352913117
0.258084124677
0.299199782495
0.339224443738
0.376647866092
0.410126521646
0.438659385638
0.461708223838
0.47924215826
0.491699336766
0.499872812674
0.504740787129
0.507270924374
0.508232866432
0.50805158606
0.506727083259
0.503834385271
0.498603850073
0.490067813422
0.477248074173
0.459351579008
0.435940180065
0.40704475533
0.373203539032
0.335417555935
0.29503033395
0.253552115389
0.212458343085
0.172996611743
0.240122251691
0.280990116866
0.324405641792
0.368794195074
0.412257394135
0.452841541041
0.488817981909
0.518927542695
0.542547372885
0.559751905766
0.571257906735
0.578263572337
0.582209906291
0.584505977259
0.586265844053
0.588102849218
0.590016992753
0.591394932114
0.59112260849
0.587790953217
0.579958962578
0.566428440025
0.546482620165
0.520047069708
0.487744639169
0.450834502593
0.411045313861
0.370330770909
0.330589256311
0.293395401466
0.299702743146
0.342605771031
0.38897207746
0.436899994341
0.484068199357
0.528079538948
0.566820233267
0.598772958983
0.623230249298
0.640371848774
0.651193140342
0.657297463773
0.660588625361
0.662917098187
0.665741357854
0.66986311669
0.675282374696
0.681197419543
0.686149775628
0.688288969869
0.685711195975
0.676813114171
0.660599341529
0.636890133486
0.60639295684
0.570625134922
0.531700447579
0.49201604837
0.453893259615
0.419233749402
0.355992466902
0.400483740503
0.449353911437
0.500374274923
0.550800568896
0.597792184179
0.638850214951
0.672199188601
0.697047022045
0.71367877112
0.723368436291
0.728124500556
0.730313572781
0.73222753047
0.735669266014
0.741628861526
0.750106317007
0.760111550343
0.769841669142
0.777004795901
0.779234321755
0.774521763705
0.761593121285
0.74016333866
0.711024498912
0.675952074654
0.637444971705
0.598343799244
0.561392819334
0.528820736758
0.408069196394
0.453082248242
0.503389816215
0.556436158837
0.609054074302
0.657959497807
0.700268397567
0.733947151682
0.758119060789
0.773174491995
0.780666063302
0.783007400933
0.78302791633
0.783460891414
0.786453635367
0.793184600087
0.803653785576
0.816682739934
0.830124153979
0.841244745789
0.847215103925
0.84562160216
0.834911622495
0.814694797822
0.785847827503
0.75040433344
0.711248347417
0.671663934236
0.634818295706
0.603267173299
0.455153154699
0.499206233697
0.54946944761
0.60306001827
0.656387804128
0.705725284758
0.747803302406
0.78033008589
0.802344319561
0.8143416818
0.818153408144
0.816598268043
0.812968475513
0.810438716893
0.811500718157
0.817521300988
0.828500465387
0.843071389669
0.858742347861
0.872338653624
0.880568092943
0.880611896366
0.870638828357
0.850153210536
0.82011635855
0.782820043582
0.741533423387
0.699984018389
0.661761970139
0.629750056802
0.496650730447
0.538125963649
0.586726950556
0.639243876309
0.691663659614
0.739815324424
0.780044587015
0.809801526921
0.82804021221
0.835361632537
0.833875640972
0.826806150194
0.817908176791
0.810797811522
0.808311197151
0.812003525147
0.82187479551
0.83636981677
0.852652446165
0.867106592934
0.875977240491
0.876040476156
0.865186446858
0.842814162944
0.809969556344
0.769202547526
0.724167420213
0.679035150452
0.637818819536
0.603728242325
0.532173422783
0.569622351031
0.615112651775
0.665107473462
0.715170795055
0.760688184885
0.797620233261
0.823158870431
0.836173548181
0.837370567436
0.829138398805
0.815106098191
0.799491484756
0.78635205368
0.778868364516
0.778783978518
0.786098895686
0.799069554766
0.814515396205
0.828378924823
0.836442321459
0.835076530207
0.821893080462
0.796185671296
0.759084850924
0.713398689097
0.663166595508
0.613003001825
0.567343929086
0.529726228842
0.561529656631
0.593952031584
0.635331397822
0.681803867102
0.728510478643
0.770393345154
0.803027930973
0.823348017066
0.830138438934
0.824210808778
0.808232214738
0.786236855947
0.76290535414
0.742736608916
0.729255596618
0.724394248285
0.728152563917
0.738598612476
0.752207417617
0.764480079743
0.770735977117
0.766940910608
0.750427792074
0.720385009316
0.67802772683
0.626422163654
0.569992855448
0.513797689502
0.462695626598
0.42055055498
0.584691709123
0.611739034586
0.648658970125
0.691260590805
0.734261996099
0.772161843096
0.800150470165
0.814903508986
0.815121178779
0.801720403017
0.777646887376
0.747339974214
0.71594308784
0.688396532274
0.668569700648
0.658582893786
0.658436111689
0.666009053532
0.677432326183
0.687765625621
0.69186552754
0.685292689579
0.665101406063
0.630374753518
0.582412512726
0.524539052006
0.461564032988
0.398988798586
0.342095249323
0.295074310137
0.601744191209
0.623812479477
0.656668996613
0.695795780985
0.735487992328
0.769800832105
0.793539512718
0.803121516563
0.797162446575
0.776684537501
0.744912112553
0.706689657314
0.667623398669
0.633095045054
0.607318406394
0.592602153299
0.588946285766
0.594042133189
0.603675885642
0.612465834689
0.614805753446
0.605851156328
0.582377720124
0.543363210087
0.490192023282
0.426446677313
0.357321959779
0.288762669214
0.226473645887
0.174972851427
0.612823609412
0.63101895815
0.660918154546
0.697676200277
0.735165315332
0.766997245554
0.787592077376
0.793109143909
0.782079431806
0.755630487085
0.717265250493
0.672233350843
0.62660381759
0.586199763593
0.555579415564
0.537239813899
0.531180958596
0.534905809263
0.543856139184
0.552208835504
0.553894868764
0.543664610154
0.518015118926
0.475818849062
0.418544813909
0.350033680356
0.275865361969
0.202428112907
0.13584971318
0.0809751611118
0.61805995992
0.634042528585
0.662644563699
0.698694030246
0.735640208472
0.766651388596
0.785762531084
0.788874819764
0.774434625002
0.743674804092
0.700376915316
0.650195730711
0.599663082309
0.555043487386
0.521239589446
0.500936798668
0.494135115053
0.498149128421
0.508076195268
0.517651798318
0.520344105539
0.510498344894
0.484332958101
0.440615087867
0.380898363824
0.309281602144
0.231729842363
0.155074794261
0.0858671775927
0.0292790273726
0.617530835252
0.633263812957
0.6625318759
0.699835952375
0.738202382884
0.770356002023
0.789946644289
0.792617344226
0.776729855918
0.743622347931
0.697354996082
0.643987715635
0.590515141195
0.543643194459
0.508618935719
0.488316144942
0.482734822126
0.489001187308
0.501868180192
0.514629879084
0.520291649378
0.512793575811
0.488075482564
0.444799201072
0.384602977251
0.311843776556
0.232871764493
0.154962106463
0.0850884619642
0.0287499027048
0.611236235409
0.628682811264
0.66058009115
0.701101966665
0.742851838568
0.778111085834
0.80014441699
0.804336717297
0.788965124554
0.755473118602
0.708199492792
0.653609305615
0.599159994249
0.551998884811
0.517717454385
0.499377852719
0.496980079815
0.507461985922
0.525232093956
0.543143077802
0.553737500281
0.550550302903
0.529242692314
0.488371188676
0.429658654189
0.357720203591
0.279291128358
0.202090049512
0.133513566295
0.0793877871084
0.59909856787
0.619918901335
0.65610555762
0.701505391632
0.748298864387
0.788323899238
0.814460078742
0.821834138876
0.808638601157
0.776422256697
0.729802516383
0.675649581933
0.6218836931
0.576093580418
0.544215137762
0.529498884666
0.53194482113
0.54830242762
0.572635810262
0.59735623852
0.614543472641
0.61732731091
0.601090342437
0.564283776111
0.508715090415
0.439257549372
0.363031570426
0.288199230222
0.222580067745
0.172327228088
0.580987836448
0.606288025186
0.647870155536
0.69925404571
0.752197216982
0.798094137081
0.829439262599
0.841101180225
0.831187795194
0.801353209891
0.756493452738
0.703883868681
0.651907500044
0.608594481783
0.580225124562
0.5702383177
0.578634061198
0.601973465736
0.63397622065
0.666612190984
0.691498334413
0.701359305993
0.691299077301
0.659663545952
0.608344806711
0.542474272889
0.469557487894
0.398199983996
0.336644239924
0.291370437462
0.556767534621
0.586943590927
0.634317207635
0.692081166267
0.75157004835
0.803734865993
0.840684949817
0.857030737229
0.850795517181
0.823738703329
0.781034941633
0.730364720262
0.680573884117
0.640133972571
0.615669713079
0.610808364746
0.625549927572
0.656267142453
0.696335281932
0.737282806638
0.770263871669
0.787597988854
0.784110512237
0.758042028159
0.711369247669
0.649481733361
0.580270154612
0.512783499316
0.455687185942
0.41578843297
0.526353051437
0.561056479118
0.613873085991
0.677668616885
0.743354713585
0.801438932577
0.843645478515
0.86432663952
0.86142108826
0.836793549666
0.795897287232
0.746817932353
0.698864132505
0.660948831481
0.640041173524
0.639956787526
0.660695673487
0.698442202515
0.746227230367
0.79513781325
0.835865303689
0.860324070286
0.863060849551
0.842210916549
0.799835598616
0.741582607628
0.675727738931
0.611763436042
0.558778057173
0.523905857496
0.489772109765
0.528002660479
0.585262009176
0.654088863991
0.724971926968
0.787975298969
0.834438058678
0.858454344935
0.857878214122
0.834679702445
0.794590690931
0.746101954204
0.698984942313
0.662594003468
0.644242698706
0.647935026702
0.673670987456
0.717446582292
0.771948250175
0.827821642894
0.875295310399
0.905878478068
0.913839264872
0.897207634607
0.858129530889
0.80251081488
0.739012407895
0.677570209071
0.627695516366
0.596849621644
0.447216284682
0.48752549927
0.547779130632
0.620188850211
0.694820420305
0.761294486156
0.810565000479
0.836467952829
0.836772783306
0.813554839387
0.772824619635
0.723478041901
0.675749358807
0.639434322985
0.622190912259
0.62821149509
0.657496071478
0.705852272963
0.76562212172
0.827009865116
0.879781250529
0.915040360111
0.926776695297
0.912914908609
0.875685559948
0.82125265976
0.758662255328
0.698293701411
0.650081235712
0.621813186786
0.399074077041
0.439844082559
0.50147412364
0.575848835036
0.652611039303
0.720937926058
0.77139832205
0.797570067547
0.797137986367
0.77228273726
0.729293436325
0.677471144639
0.627512917397
0.589655911651
0.571902522015
0.578633486736
0.609848805813
0.661167741001
0.724587897685
0.789872118813
0.84632334919
0.884640527738
0.89853453836
0.885824722304
0.848826255755
0.793961298441
0.730661023616
0.669748241661
0.621580130022
0.594272053946
0.345939098214
0.385688143562
0.447212843265
0.522070795381
0.599481882721
0.668179839283
0.718348365844
0.74330715339
0.740656409455
0.712682104063
0.665951970846
0.610172214109
0.556502691621
0.515621964853
0.495876845209
0.501836440721
0.53350075139
0.586300669183
0.651889382695
0.719588330457
0.778237654698
0.818131151115
0.832701086074
0.819661489552
0.781412154016
0.724633388479
0.659141492163
0.596202731072
0.546597222394
0.51876736807
0.288591125122
0.326252742834
0.386605633691
0.460880359058
0.537873862005
0.605876420906
0.654686610569
0.677365972698
0.67143009854
0.639270269395
0.58773283643
0.526929147175
0.468481861973
0.423510946715
0.400707629596
0.404829388433
0.435876223224
0.489090656155
0.55578145903
0.624828665958
0.684609616596
0.725012963414
0.739192355244
0.724756510788
0.684189838798
0.62443079757
0.555680812296
0.489649604601
0.437540231417
0.408122131378
0.227952384332
0.263079657411
0.321813822426
0.39505840405
0.471187405608
0.538047649851
0.585052585621
0.605005605335
0.59533768396
0.558545414066
0.501753764356
0.435479225587
0.371807260676
0.322299239932
0.295990808343
0.297827813507
0.327810255426
0.380992286499
0.448338261739
0.518286810837
0.578752470877
0.619218751101
0.632560682805
0.61628167342
0.572950747979
0.509764514065
0.437309522837
0.367738951542
0.312678796857
0.281225534107
0.165025625823
0.197885022405
0.255266929714
0.32774783573
0.403278804034
0.469263201755
0.514729351767
0.532222497203
0.519088996746
0.477930754238
0.416151355919
0.344672435771
0.276042259286
0.222263601193
0.192716523268
0.192535242897
0.221719760079
0.275135857429
0.34340347317
0.414519832575
0.475936670151
0.516732351916
0.52950329163
0.511647585451
0.465818874696
0.399471916231
0.323578387184
0.250734920425
0.192990452373
0.159768495048
0.100823625413
0.13236199496
0.189338494025
0.262002573894
0.337882358406
0.403937759069
0.448811972785
0.464792093404
0.449139863326
0.404562497667
0.3387422002
0.263005748136
0.19036420954
0.133261763559
0.10142288876
0.100170172314
0.129503614222
0.184100627311
0.254236733016
0.327467752188
0.390782616763
0.432854549531
0.446001346717
0.427515793206
0.380136146599
0.311575313045
0.233190095641
0.15802058288
0.0985386509239
0.064494848485
0.0363011782668
0.0679914727467
0.126035515534
0.200355721225
0.278057273913
0.345656629483
0.391411858871
0.407351906641
0.39065389891
0.344130362067
0.27574211742
0.197221085407
0.122041136667
0.0630878547657
0.0304301350607
0.0295789345081
0.0605342531081
0.117785133904
0.19126268154
0.268081312448
0.334767155989
0.379588291727
0.394583898353
0.376941449478
0.329483818985
0.260182062309
0.180778108517
0.104755501721
0.0450090578282
0.0116163622433
