# vtk DataFile Version 2.0
Function: z = f(x,y,z)
ASCII
DATASET STRUCTURED_POINTS
DIMENSIONS 30 30 1
ORIGIN 0 0 0
SPACING 0.05 0.05 0.05
POINT_DATA 900
SCALARS f(x,y,z) float
LOOKUP_TABLE default
0.0516457936328
0.108099772737
0.164267947996
0.219298745343
0.272288878238
0.322344002105
0.368641590547
0.410486166849
0.447348293844
0.478881470769
0.504914833366
0.525423655835
0.540483401996
0.55021582091
0.554736855123
0.554115708774
0.548352381863
0.537377670251
0.521075631391
0.499324516224
0.472048860928
0.439273391305
0.401168971612
0.358082102611
0.310542221472
0.259244804906
0.205012379313
0.148739289267
0.0913288213103
0.0336325495075
0.0975844446782
0.153387316929
0.210218099251
0.266755991019
0.321490879104
0.372892156517
0.419584724817
0.460502719187
0.494995296488
0.52286705474
0.544346885278
0.559991354759
0.570539948086
0.576747733705
0.579224817383
0.578310672949
0.574005300405
0.565969225919
0.553592343725
0.536119585378
0.512811465972
0.483111418854
0.446790552686
0.404044269449
0.355523412282
0.302293846003
0.24573066905
0.187364488415
0.128705417227
0.0710742561092
0.143289256214
0.199515878451
0.258084124677
0.317203967707
0.374758467825
0.428580755624
0.476743160624
0.517809429904
0.551007314351
0.576292510771
0.594293666092
0.606148639425
0.61326093676
0.617018945925
0.618526935908
0.618394650232
0.616622088896
0.612599508377
0.605222639689
0.593103095003
0.574837368329
0.549287600556
0.515825144756
0.474494304123
0.42606732777
0.371980468618
0.314161397147
0.254776982764
0.195944165185
0.139452971594
0.188063485821
0.245404802248
0.30640145658
0.368794195074
0.429859251425
0.486793493814
0.537116679715
0.579022168106
0.611616303902
0.635005882692
0.650219306997
0.658975728385
0.66334267393
0.665341850843
0.666571691334
0.667912208616
0.66936340269
0.670045260341
0.668359349362
0.662283962538
0.649751572797
0.629043028572
0.599129927341
0.559905473514
0.512263322178
0.458010114354
0.399626092568
0.339914388638
0.28159876887
0.226938487008
0.231168080877
0.289818541214
0.353438053373
0.419298137051
0.484068199357
0.544308846054
0.596987262578
0.6399264198
0.672111256666
0.693799667546
0.706419810557
0.71227212972
0.714088173194
0.714522967576
0.715669108295
0.718676878257
0.723546277461
0.729127023003
0.733326519452
0.733489740212
0.726885137125
0.711212266169
0.685042969226
0.648119351927
0.601456475327
0.547231368553
0.488476846171
0.428632302415
0.37102833018
0.318393409767
0.27187130491
0.331504780538
0.397421021905
0.46642232215
0.534571261791
0.597792184179
0.652499702705
0.696146400142
0.727595809458
0.74725692381
0.756957656907
0.759579745227
0.758518758012
0.757063041244
0.757799353573
0.762148247595
0.770109723312
0.780263228125
0.790022003384
0.796097703109
0.795094758057
0.78413143175
0.761379810479
0.726430901087
0.680421170605
0.625898036262
0.566446884666
0.506143372466
0.448924919145
0.397989231562
0.309500181777
0.369338439679
0.436773177237
0.508137461031
0.578887044991
0.644310010053
0.700268397567
0.7438444022
0.773780150951
0.790635735757
0.796638825924
0.795252450384
0.790536199464
0.786411738529
0.785959989451
0.790871774517
0.801147093729
0.815095124797
0.82963494585
0.840844891523
0.844665371489
0.837633356816
0.817521178198
0.783768743699
0.737633926318
0.682034531389
0.621108517563
0.559567803901
0.501956636476
0.451941948707
0.343485685075
0.402447447423
0.470319403344
0.542965392859
0.61523434331
0.681778073217
0.737906051889
0.78033008589
0.807670896247
0.82063967368
0.821863843088
0.81538772586
0.805934933406
0.798060450476
0.795339362162
0.799732760444
0.811240645322
0.827901924817
0.846141513835
0.861404427628
0.868967054784
0.864785073915
0.846231060123
0.812593822687
0.765252640579
0.707495707236
0.64401355335
0.580154360399
0.521069201043
0.470894235259
0.373394638939
0.430299295746
0.497427860043
0.570174945292
0.642782652245
0.70926653701
0.764383496854
0.804474950235
0.82804021221
0.835941572282
0.831206210945
0.818459742041
0.803089798065
0.790284683153
0.784113645616
0.786808047126
0.798367887685
0.816561805618
0.837320552614
0.855455824539
0.865579988897
0.863067431846
0.844890972892
0.810188322532
0.760460165709
0.699365083965
0.632146180032
0.564787897805
0.503048136529
0.451532282743
0.398943542747
0.452734110302
0.518062299264
0.589853496536
0.661742976283
0.727110032196
0.7801589895
0.816860878552
0.835593608435
0.837370567436
0.825618691642
0.805544887352
0.783200808145
0.764408077541
0.75373010707
0.753668528099
0.764223340626
0.782892913288
0.805113834552
0.825064480899
0.83669319875
0.834793081806
0.81593719398
0.779112146985
0.725940031738
0.660449817881
0.588437180192
0.516522824977
0.451071478072
0.397157752574
0.419992598468
0.469939165821
0.532737068496
0.60284246684
0.673283808428
0.736804124537
0.787055168351
0.819637582121
0.832807868961
0.82773051594
0.808232214738
0.78010116411
0.75005303872
0.724542781471
0.708627967116
0.705080496711
0.713900370256
0.732315686695
0.755268871275
0.776304981093
0.788708341485
0.786690753696
0.766425526046
0.726748171465
0.669402186842
0.598786929922
0.521250647525
0.444050308371
0.374157464885
0.317115956723
0.436521575903
0.482369835018
0.542383143374
0.610548434757
0.679287330152
0.740706598424
0.787905420714
0.81611405117
0.823467586933
0.811281613855
0.783782579212
0.747339974214
0.709333494607
0.67685140268
0.655445436407
0.648157766535
0.654988393064
0.672895145247
0.69632628511
0.718193550365
0.731117245264
0.728727878597
0.70679900309
0.66401503289
0.602240870857
0.526246262841
0.442932027701
0.360191396575
0.285602748475
0.225179149616
0.448592218177
0.490631151
0.548148846981
0.614663013346
0.681988444494
0.741595646874
0.786031229584
0.81015505867
0.811980825301
0.792975214112
0.757764427972
0.713299250547
0.667623398669
0.628458454009
0.601850317762
0.591111430368
0.596241791826
0.613928961697
0.638127038787
0.661114441423
0.674847452774
0.672375289174
0.649071747755
0.60347014388
0.537556786381
0.456471809213
0.367668603277
0.279676662123
0.200681191353
0.137164483741
0.456304138157
0.495340897038
0.551170132994
0.616840326692
0.683559445943
0.74216173478
0.78464123026
0.805487410326
0.802592560175
0.777574463224
0.735459077938
0.683778480436
0.631240408636
0.586199763593
0.555196609723
0.541813657156
0.546050905893
0.564325645802
0.590097812469
0.615012504837
0.63036198499
0.628614176807
0.604743121825
0.557131036625
0.487885636012
0.402517442041
0.309032417657
0.216596318826
0.134001177737
0.0681985137217
0.459752197928
0.496998250579
0.552350494222
0.618388182965
0.685712458031
0.744521301037
0.786256177
0.805036175759
0.798632176537
0.768813061538
0.721004544817
0.663319994951
0.605131170941
0.555426293228
0.521239589446
0.506424039419
0.510979643147
0.531053420807
0.559611144764
0.587664594576
0.605842011243
0.606030026189
0.582802925357
0.534391826544
0.463025850528
0.374585907467
0.277630532349
0.181961743552
0.0969783998551
0.0301012471498
0.458993019056
0.495880962938
0.552188811729
0.620026592977
0.689388621317
0.749836615954
0.792259469859
0.81040588477
0.801925333939
0.76873779835
0.716668747655
0.654412842886
0.592005864126
0.539069351202
0.503131694969
0.488316144942
0.494622701121
0.517928113992
0.550703992698
0.583328797414
0.605766748055
0.60932318359
0.588172634368
0.540395119403
0.468341165444
0.378262070754
0.27926894236
0.181800061058
0.0958611122142
0.0293420682786
0.454026601544
0.491989034116
0.550685085514
0.621755556727
0.694587935802
0.758107679529
0.802651108837
0.821596537361
0.81247203238
0.777348673662
0.722451686453
0.657057024239
0.59186448819
0.537128937515
0.500872926291
0.487489973724
0.496980079815
0.524949725356
0.563376356272
0.602005113352
0.630136195428
0.638493649012
0.62085224886
0.575140915203
0.503831580761
0.413545931901
0.313947647692
0.216111271345
0.130649314814
0.0659209771081
0.444796323821
0.485044712796
0.547340434514
0.622855063405
0.700369260927
0.768172221456
0.816047693879
0.837003603728
0.828446612309
0.792598898175
0.736085442164
0.668763490218
0.601996864592
0.546673743879
0.511310845376
0.500571957981
0.514457081696
0.54830242762
0.593591278458
0.639435455615
0.674471136837
0.688841076183
0.675920292813
0.633486608176
0.564133360963
0.474852625646
0.375860653335
0.278868249655
0.195094753149
0.133368589385
0.431207323805
0.474548821532
0.54125136592
0.622017304839
0.705020473158
0.777913802839
0.829928470728
0.853702014251
0.846519688744
0.810754771544
0.753431999081
0.684989909753
0.6174563469
0.562352808498
0.528690175067
0.521402505195
0.540489798882
0.58101799754
0.63397622065
0.687842970233
0.730590402952
0.751779980409
0.744386966171
0.706038082904
0.639448075271
0.551979405846
0.454400897783
0.35905961912
0.277781734989
0.219864897518
0.413159988628
0.459883577053
0.531281926054
0.617588156946
0.706369278007
0.784641958784
0.841084804083
0.867964963226
0.862446285576
0.827053147253
0.769210040283
0.699936795519
0.631925277383
0.577330303237
0.545656916821
0.542109446416
0.566687892022
0.614187925358
0.675104502684
0.737282806638
0.788030972798
0.816329170311
0.81475290715
0.780777807198
0.717240021089
0.631872399501
0.53599633763
0.442595165929
0.364101876118
0.310283346882
0.390592575164
0.440443946253
0.516283791835
0.607876006665
0.702180772435
0.785578496276
0.846195210951
0.875927677679
0.871818339854
0.836542672375
0.777924922864
0.707566214629
0.638822433177
0.584481715254
0.554543267821
0.554481688849
0.58429697834
0.63851453832
0.707135161829
0.77737071212
0.835865303689
0.871017813224
0.875003993107
0.845148368435
0.784408495817
0.700887614033
0.606459690321
0.514744317548
0.438781314023
0.388806784991
0.363525313614
0.415774556415
0.495325987627
0.591474275444
0.69057277497
0.778365630923
0.842426304023
0.874281167386
0.870851258432
0.834963150846
0.774840847843
0.702666765186
0.632460809466
0.577644436815
0.548711017412
0.551405418922
0.585727641346
0.645932817019
0.721527575759
0.799090461437
0.864601567462
0.905878478068
0.914697190043
0.888231129701
0.829559259622
0.74715520669
0.653445510185
0.562686025389
0.488523397198
0.441662957418
0.332098002007
0.38568813281
0.467894165941
0.567541543035
0.670376792608
0.761507796962
0.827955444776
0.860875721064
0.857068257272
0.819510725869
0.756826885663
0.681780444874
0.609055331176
0.552706320086
0.523720945003
0.528114343285
0.565886514932
0.631022322587
0.712534232849
0.796367470203
0.867838106973
0.91418243494
0.926776695297
0.902643215574
0.844982364324
0.762638156534
0.668589703526
0.577729122996
0.50430988643
0.459506552191
0.296594140967
0.350344549785
0.434024574847
0.535990431231
0.641381820863
0.734670363631
0.802324376172
0.835129455396
0.829763826779
0.789356261571
0.722930274175
0.643830865267
0.567405983604
0.508343724087
0.478125783338
0.483037568404
0.523079079287
0.591964908937
0.678213360733
0.767136339775
0.843385897304
0.893617032645
0.908806231395
0.885824722304
0.827994279896
0.744529307261
0.648961487762
0.556819201511
0.482962746582
0.439035907897
0.257446906358
0.310276315362
0.394349054527
0.497552112372
0.604418364235
0.698783167589
0.766562267029
0.798170871362
0.79016580009
0.745826923249
0.674577510835
0.590343855978
0.509137928522
0.44628114275
0.413749358505
0.418098252528
0.459327824817
0.530882398634
0.620786114135
0.713717557037
0.793664757497
0.846701422382
0.863404281699
0.840493465411
0.781412154016
0.695745138707
0.597576674889
0.503071405089
0.427696453969
0.383564833009
0.215225324582
0.266355500756
0.350042721008
0.453704747297
0.561267628374
0.655930459297
0.72305641262
0.752690309044
0.741267562102
0.692219140611
0.615368070162
0.52522193634
0.438456730073
0.37102718503
0.335403324273
0.338411094235
0.380050494915
0.453495579882
0.546276326072
0.642437999817
0.72530461019
0.780368571604
0.797806858469
0.774188501969
0.71307808857
0.62443079757
0.522883456417
0.425236970051
0.347565289722
0.302450653472
0.170602371784
0.219707186509
0.302682759229
0.406477625344
0.514411007016
0.60904573689
0.675192415475
0.702525475372
0.687358924141
0.633274829382
0.550495972279
0.454111230873
0.361460617178
0.289132184245
0.250090118357
0.25143063564
0.293153736091
0.368163203589
0.46349485185
0.562560627819
0.648020519487
0.704785648811
0.722633234607
0.697981209274
0.634515565254
0.542561869945
0.437309522837
0.336195691286
0.255901153131
0.209477372971
0.124309784434
0.17158368743
0.254042062339
0.358164218
0.466662549988
0.561463628533
0.626825482102
0.652052155193
0.633336249393
0.574410931086
0.48589873705
0.383469837782
0.285128266378
0.208095395275
0.165829573978
0.165697288301
0.207698538245
0.284466837995
0.382543838046
0.484708165961
0.572955788644
0.631616535598
0.650067870045
0.624576625601
0.558950200679
0.463884550781
0.35512164744
0.250734920425
0.168011974164
0.120473499814
0.0770866151564
0.123220550626
0.205852671925
0.310993061335
0.420747287841
0.516405659258
0.581673632014
0.6054848625
0.583910546333
0.52083494868
0.427280361913
0.319498248984
0.216156664073
0.135110299003
0.0903116664976
0.0893975220642
0.132367865703
0.211585941906
0.31309923795
0.419053062012
0.510779359913
0.572026668699
0.591772695999
0.566133176646
0.499036915024
0.401550254739
0.289967739366
0.182999061089
0.0985386509239
0.0505764265873
0.0296296063685
0.0756984311529
0.159579155683
0.266812635683
0.378897613548
0.47648813468
0.542737083462
0.566207728185
0.542849858492
0.476698838335
0.379176715677
0.267116245928
0.159849504353
0.0758645021557
0.0296079152835
0.0289867689344
0.0740010631083
0.156743772607
0.262768221484
0.373586398535
0.469866228494
0.534774955954
0.556890532948
0.532177595526
0.464686354046
0.365853540216
0.252526269652
0.144050496955
0.0589274797259
0.0116163622433
