# vtk DataFile Version 2.0
Function: z = f(x,y,z)
ASCII
DATASET STRUCTURED_POINTS
DIMENSIONS 30 30 1
ORIGIN 0 0 0
SPACING 0.05 0.05 0.05
POINT_DATA 900
SCALARS f(x,y,z) float
LOOKUP_TABLE default
0.0516457936328
0.136140647561
0.220211126083
0.302592770735
0.381944337868
0.456937861293
0.526352013934
0.589154118247
0.644558040255
0.692049278826
0.731374126426
0.762495868987
0.785526558848
0.800646974918
0.808029274311
0.807776214687
0.799887796047
0.78426126073
0.76072445162
0.729096589813
0.689265622965
0.641268265147
0.585358223891
0.522050000331
0.452129728442
0.37663008577
0.29677239939
0.21388463549
0.129308037721
0.0443070645447
0.0695435698541
0.153387316929
0.238757354715
0.323692494407
0.405950446813
0.483258492461
0.553574818519
0.615316777226
0.667517965132
0.709888239906
0.742767470499
0.766982074067
0.78363007365
0.793832631483
0.798495662192
0.798123232978
0.792715343843
0.781767927582
0.764375069571
0.739415607577
0.705791518556
0.662676385355
0.609730339022
0.547243521887
0.476182337403
0.398129433327
0.315126622494
0.229446624375
0.143331728161
0.0587431226593
0.0873460781268
0.170976622987
0.258084124677
0.346010664047
0.431612906364
0.511673378876
0.583329782988
0.644449500729
0.693885859173
0.731573074787
0.758444593013
0.776189962227
0.78689317617
0.792615780407
0.79499744707
0.794943552906
0.792454097913
0.786623705348
0.775812703075
0.757959545533
0.730980238977
0.693185235034
0.643641088261
0.582413582192
0.510649389751
0.430481128909
0.344771098263
0.256736770564
0.169521480545
0.0857831473558
0.104769460429
0.18846829886
0.277594760241
0.368794195074
0.458022223089
0.54111661825
0.614394596204
0.675173568763
0.72212659353
0.755412245772
0.776557547417
0.788115178062
0.793155102152
0.794679248578
0.795061046982
0.795607183653
0.796317658589
0.795885785505
0.791938134756
0.781472777452
0.761419749148
0.729226370248
0.683365618822
0.623678919603
0.551493214991
0.469491093171
0.381355338498
0.291248177005
0.203213988965
0.120607423875
0.121512621247
0.205358973505
0.296583614833
0.391135165387
0.484068199357
0.570275737423
0.645254509474
0.705771957109
0.750320868456
0.779284177581
0.794782482901
0.800231595236
0.799687449729
0.797092358599
0.795553509001
0.796778896763
0.800768521886
0.805814388539
0.808809309571
0.805810972761
0.792763442965
0.766250909364
0.724152773542
0.666086101431
0.593558104905
0.509801342363
0.419319083918
0.327218308888
0.238444443084
0.15704886635
0.137277445723
0.221138444594
0.314328398653
0.412099197713
0.508604370421
0.597792184179
0.674338883112
0.734461938607
0.776473869319
0.800981968113
0.810700409893
0.809908136701
0.803647054382
0.796799858483
0.793207493667
0.794979265306
0.8021151734
0.812505912576
0.822310538173
0.826646354642
0.82047145614
0.799506900623
0.761038513189
0.704459000971
0.631455845315
0.545811574836
0.452849945405
0.358622689622
0.268976278841
0.188658823247
0.151789758389
0.235348345977
0.330186554873
0.430859544543
0.530619798095
0.622470829647
0.700268397567
0.759680003027
0.798837895209
0.818573725775
0.82219524612
0.814844529506
0.802549452479
0.791133093915
0.785170155986
0.787171253605
0.797136386774
0.812554940577
0.828852212844
0.840205124698
0.840585799592
0.824852164265
0.789696467323
0.734287057102
0.660491684421
0.572642848109
0.476884789796
0.380213995365
0.28937798171
0.209821589361
0.164817733677
0.247633389385
0.343679332519
0.446813992202
0.549388806001
0.643462534751
0.722070451062
0.78033008589
0.816193418944
0.830716460687
0.827800538999
0.813450858366
0.794681266035
0.778255224208
0.769481192569
0.771271095573
0.78362493322
0.803630781054
0.825980179393
0.843909666034
0.850405393729
0.839462157994
0.807178630948
0.752498802127
0.677470691825
0.586976769082
0.487981761291
0.388426907616
0.295960770489
0.216724920789
0.176184892528
0.257776627102
0.354549315222
0.459664655664
0.564573040455
0.660388477149
0.739325752596
0.795952427538
0.82804021221
0.836869475875
0.826935122901
0.805105488995
0.779380392105
0.757463677763
0.745397563159
0.746495282293
0.760756835164
0.784868987774
0.812789522933
0.836814595106
0.848944386348
0.842310560951
0.812418214546
0.757986977872
0.681245140693
0.587625142267
0.484912195743
0.381992293569
0.287415043717
0.208018747411
0.185775734689
0.265712925136
0.362781735248
0.469447133456
0.576258466247
0.673384987892
0.752220999482
0.806784091545
0.834665704842
0.837370567436
0.819987160183
0.790246950011
0.757135725569
0.729297715717
0.713508895157
0.713483807428
0.72922245253
0.757010286923
0.790071335907
0.819761370621
0.837094602416
0.834339564364
0.806407775608
0.751794508087
0.672908321039
0.575731623936
0.468870115686
0.36215454202
0.26503555645
0.185048190545
0.193533305408
0.2715185806
0.368586141575
0.476504226421
0.584921136083
0.683061371551
0.761498748155
0.81370088621
0.837078957005
0.833362047399
0.808232214738
0.770284057172
0.729489334049
0.69543265756
0.675623759914
0.674178494193
0.691096860398
0.722263005446
0.760167197128
0.795224823253
0.817464124473
0.818290502637
0.792021900402
0.736929230905
0.65560132286
0.554570555951
0.443263114848
0.332454498561
0.232496406145
0.151620599512
0.199449362751
0.27537911571
0.372341820573
0.48140898508
0.591327864636
0.69037820695
0.768313341592
0.818050918663
0.836821839978
0.826579551196
0.793599686151
0.747339974214
0.698758145435
0.658379195331
0.634446613622
0.631477562934
0.649472043265
0.683912891992
0.726556619394
0.766878229954
0.793919993622
0.798224181026
0.773515158335
0.717839479886
0.633966243867
0.528977800176
0.413120819242
0.298115553358
0.195214747119
0.113346892782
0.203549061325
0.277541025437
0.374516607571
0.484850585124
0.59638916796
0.696467350504
0.774017976569
0.821408726041
0.835690231261
0.819040296688
0.778328132643
0.72387459972
0.667623398669
0.621039908336
0.59310137595
0.588726273678
0.607914601521
0.64574788731
0.693248883817
0.738952212197
0.770914171699
0.778813901728
0.755782191965
0.699641237949
0.613340407341
0.504512020253
0.384223232873
0.265139050777
0.159413264099
0.0766710954434
0.205872984149
0.27825599926
0.375573298513
0.487502928957
0.600990054919
0.702424917541
0.779919874874
0.825292636594
0.835413565565
0.812684825047
0.764569201849
0.702250687786
0.638658954309
0.586199763593
0.554584120376
0.549131806367
0.569842821567
0.611397384266
0.664084489725
0.715498375771
0.752709370952
0.764533483452
0.743507926464
0.687230536727
0.598830951376
0.486491460737
0.362099706758
0.239265448296
0.131043521026
0.0477558778976
0.20645977874
0.27772740577
0.37587998306
0.489898827317
0.605828057325
0.709113160943
0.787046010465
0.830894345351
0.837348258994
0.809034273451
0.75400875202
0.684318817736
0.613880112754
0.556038782574
0.521239589446
0.51520362462
0.537930888097
0.583700288625
0.642067063956
0.699685068588
0.742638660368
0.758880716259
0.740354872965
0.684434608428
0.594429829254
0.479072795984
0.351071636325
0.224980862417
0.114756355475
0.0314167987933
0.205332513143
0.276068402909
0.375639909055
0.49233161794
0.611286602811
0.717005598243
0.795959990771
0.838867549641
0.842238098772
0.808922519022
0.747570750173
0.671093046487
0.594391020816
0.53175120199
0.494352109768
0.488316144942
0.513643307513
0.564211196687
0.628841292707
0.693247066742
0.742526905938
0.763770556038
0.748328077255
0.693348588734
0.602322266554
0.48453134147
0.353504426948
0.224740788411
0.113097352614
0.0302895331967
0.202491187359
0.273278990678
0.374853076496
0.494801300828
0.617365691378
0.726102229441
0.806661815792
0.849212249463
0.8500830849
0.812349561758
0.745255196311
0.662573374038
0.580191678495
0.513337021841
0.473921681341
0.468469367332
0.496980079815
0.552930108452
0.624407175978
0.696184370233
0.752374107663
0.779203002787
0.767427539333
0.713972477645
0.622508263276
0.502867097196
0.369398078628
0.238545226279
0.126066512444
0.0443740811078
0.197912733342
0.269246011134
0.373316237543
0.497014538241
0.62368189539
0.735929537004
0.818587878099
0.861274747491
0.860139430152
0.81848152454
0.746138123413
0.657745743474
0.570177938979
0.499602005415
0.458663977558
0.454288875286
0.4864766986
0.54830242762
0.627120027572
0.706762202967
0.77035539955
0.803263100619
0.795648213414
0.744211139479
0.652802593841
0.531804747683
0.39638718599
0.263938680749
0.151118249796
0.0710347674604
0.191558503575
0.263766095686
0.370661302534
0.498438519444
0.629537683039
0.74562526805
0.830711203734
0.873863348693
0.871050718426
0.825797270188
0.748533673228
0.65475957547
0.562334501869
0.488366131243
0.446234255874
0.443265205186
0.479458979177
0.547489248427
0.63397622065
0.721812217031
0.793137712614
0.832453059474
0.829327588364
0.780237342028
0.689213304967
0.567187618579
0.430150353606
0.296435035319
0.183601727094
0.105456033606
0.183387915039
0.256587554854
0.366425475525
0.498399342032
0.634048045458
0.754093307251
0.841724570909
0.885459724819
0.881087515009
0.832356257531
0.750290198123
0.65125211593
0.554087506608
0.476844432303
0.433636442809
0.432191177088
0.472508635142
0.546861178006
0.641135255886
0.737282806638
0.816458334605
0.862299060642
0.863780739011
0.817155053659
0.72663325856
0.603697465326
0.465158230459
0.330293832511
0.217565380399
0.141475209143
0.173375813127
0.247463893669
0.360140921187
0.496207830314
0.636302466594
0.760201798193
0.850274782848
0.894489338734
0.888453942403
0.836141268709
0.749169139876
0.644763466271
0.542755714252
0.462134329292
0.417746618695
0.417721530966
0.462059066105
0.542630275607
0.644587852167
0.748943350313
0.835865303689
0.888127801924
0.894113022797
0.849848291453
0.759725131339
0.635775624283
0.495630812544
0.359513727959
0.246786524983
0.172648268982
0.161530439772
0.236209589914
0.351428353149
0.491290933769
0.635534131774
0.76299016205
0.855207496574
0.899604083307
0.891608129327
0.835416668288
0.743241098902
0.633170462757
0.526022196913
0.44172513017
0.395860327341
0.396958046475
0.445018287571
0.531510792582
0.640854496694
0.753120571107
0.847491578761
0.905878478068
0.916069870315
0.87386872185
0.783846825594
0.658586233586
0.516538473848
0.378871331497
0.265848006529
0.193364294655
0.147908749728
0.222748346475
0.340078222436
0.483305851554
0.631266988292
0.761849094252
0.855780155652
0.899928150239
0.889541015618
0.82904014424
0.731230511307
0.615064289629
0.502344886966
0.413941515447
0.366168997395
0.367958900398
0.419311224459
0.511294401986
0.627593610656
0.747339638342
0.848729077283
0.912809754668
0.926776695297
0.886208506717
0.795857251325
0.668854951373
0.524473620643
0.384825797532
0.271075727579
0.19981593684
0.132626243247
0.207145297346
0.326105296778
0.472216985141
0.623415071358
0.756642263747
0.851806062769
0.895224475956
0.881965171439
0.81667390047
0.712749214736
0.590006418271
0.471234889535
0.378244223985
0.328083001454
0.330084099074
0.384247516845
0.481240377634
0.604014101609
0.730759093313
0.838685974286
0.907979440495
0.925240940252
0.885824722304
0.794663118522
0.665438121372
0.518242230395
0.376132737271
0.261174933079
0.190658074219
0.115859399387
0.189617390241
0.309766992547
0.458322219559
0.612316734657
0.747748492879
0.843704508926
0.885952820116
0.869380825106
0.798858633948
0.688378374817
0.558618482968
0.433354307562
0.335335827386
0.282345379779
0.284117151418
0.340651142302
0.442213165756
0.571020884439
0.704324319566
0.818348121975
0.89241385641
0.912529394697
0.873824626785
0.781412154016
0.649523939071
0.499072967251
0.354061283517
0.237455224488
0.167240776912
0.0978400437184
0.170519913432
0.291542060716
0.44222376848
0.598697654564
0.736016920724
0.8324480959
0.873209247197
0.853007503799
0.776937334557
0.659584444133
0.522490399004
0.390416519033
0.287053166334
0.230916435757
0.232141823519
0.29072932962
0.396543457844
0.531068113339
0.670612933992
0.790416599941
0.868937544708
0.89159006363
0.853279687857
0.759299288205
0.62443079757
0.47040768701
0.322176754771
0.203605383011
0.133376288822
0.0788423517071
0.150311233065
0.272073058113
0.424748379414
0.583568769269
0.722642676151
0.819416143242
0.858557267431
0.83459290843
0.752841893888
0.628483504956
0.483922439333
0.344905987581
0.236064895144
0.176649014381
0.177195151052
0.237703305156
0.347636670934
0.487745396027
0.633398734991
0.758849397264
0.841692685147
0.86674931749
0.828700466641
0.733019272892
0.595037639351
0.437309522837
0.285726474877
0.16505692317
0.0946803151536
0.0591644382117
0.129501551471
0.252082274538
0.406830429633
0.568076543516
0.708984311377
0.806179290639
0.843779607977
0.816131853629
0.728779214043
0.59749454686
0.445545680999
0.299665877724
0.185426265805
0.122810455113
0.122756560948
0.185264583311
0.299396406901
0.445168421847
0.597009499379
0.728186378234
0.81543122949
0.842971195509
0.805263089842
0.707960322251
0.566944766062
0.40559086385
0.250734920425
0.128046409029
0.0576015074408
0.0391073987458
0.108594239691
0.232275356565
0.38937784124
0.553331174937
0.696354299562
0.794252286781
0.830593293054
0.799543639145
0.706870870303
0.568941420653
0.40988625034
0.257424591327
0.138067955713
0.0725337108778
0.0721612816642
0.136950668072
0.255562445259
0.407279245845
0.565589557731
0.702774148953
0.794702059368
0.82500685485
0.787920990149
0.689278144504
0.545510161451
0.380811969327
0.222964626225
0.0985386509239
0.028306951551
0.0189550913313
0.0880295646028
0.213248979921
0.373143698815
0.540242156964
0.685818542994
0.784857442808
0.820377042655
0.786363393824
0.688808400364
0.544672072888
0.378948502762
0.22034289265
0.0963071379798
0.02829236364
0.0280393040163
0.0955479591087
0.219077594532
0.377177085396
0.542394536275
0.686024744503
0.783073618716
0.816581148299
0.780555429205
0.681010410143
0.534927904866
0.36732332747
0.206922489328
0.0811969547622
0.0116163622433
