# vtk DataFile Version 2.0
Function: z = f(x,y,z)
ASCII
DATASET STRUCTURED_POINTS
DIMENSIONS 30 30 1
ORIGIN 0 0 0
SPACING 0.05 0.05 0.05
POINT_DATA 900
SCALARS f(x,y,z) float
LOOKUP_TABLE default
0.0516457936328
0.122120210149
0.192239537039
0.260945758039
0.327116608053
0.389640931699
0.44749680224
0.499820142548
0.545953167049
0.585465374798
0.618144479896
0.643959762411
0.663004980422
0.675431397914
0.681383064717
0.680945961731
0.674120088955
0.66081946549
0.640900041506
0.614210553018
0.580657241947
0.540270828226
0.493263597752
0.440066051471
0.381335974957
0.317937445338
0.250892389351
0.181311962379
0.110318429516
0.0389698070261
0.0835640072662
0.153387316929
0.224487726983
0.295224242713
0.363720662958
0.428075324489
0.486579771668
0.537909748207
0.58125663081
0.616377647323
0.643557177889
0.663486714413
0.677085010868
0.685290182594
0.688860239787
0.688216952964
0.683360322124
0.673868576751
0.658983706648
0.637767596477
0.609301492264
0.572893902104
0.528260445854
0.475643895668
0.415852874843
0.350211639665
0.280428645772
0.208405556395
0.136018572694
0.0649086893842
0.11531766717
0.185246250719
0.258084124677
0.331607315877
0.403185687095
0.47012706725
0.530036471806
0.581129465316
0.622446586762
0.653932792779
0.676369129553
0.691169300826
0.700077056465
0.704817363166
0.706762191489
0.706669101569
0.704538093404
0.699611606863
0.690517671382
0.675531320268
0.652908803653
0.621236417795
0.579733116508
0.528453943157
0.46835835876
0.401230798764
0.329466247705
0.255756876664
0.182732822865
0.112618059475
0.146416473125
0.216936550554
0.29199810841
0.368794195074
0.443940737257
0.513955056032
0.575755637959
0.627097868434
0.666871448716
0.695209064232
0.713388427207
0.723545453224
0.728248888041
0.73001054971
0.730816369158
0.731759696134
0.73284053064
0.732965522923
0.730148742059
0.721878369995
0.705585660973
0.67913469941
0.641247773081
0.591792196559
0.531878268584
0.463750603763
0.390490715533
0.315581282821
0.242406378918
0.173772955442
0.176340351062
0.24758875736
0.325010834103
0.405216651219
0.484068199357
0.557292291739
0.621120886026
0.672849188455
0.711216062561
0.736541922564
0.750601146729
0.756251862478
0.756887811461
0.755807663088
0.755611308648
0.75772788751
0.762157399674
0.767470705771
0.771067914512
0.769650356487
0.759824290045
0.738731587767
0.704597871384
0.657102726679
0.597507290116
0.528516355458
0.453897965044
0.377925305652
0.304736386632
0.237721138059
0.204574375316
0.276321612566
0.355874710279
0.439260759931
0.521587816106
0.597792184179
0.663419292909
0.715304169374
0.752034839389
0.774119445961
0.7838290334
0.784743940964
0.781082906197
0.776931449864
0.77550342362
0.778563756451
0.786112448356
0.79638457035
0.806166270779
0.811372028876
0.807783107098
0.791819166187
0.761209161834
0.715444951029
0.65593850796
0.585854805549
0.509648415036
0.432383031044
0.358950598993
0.293324027404
0.230644970083
0.302343392828
0.383479866055
0.469498502787
0.554753421543
0.63339041985
0.700268397567
0.751762202613
0.78630902308
0.804604730766
0.809417036022
0.805048489945
0.796542825971
0.788772416222
0.785565072718
0.789021514061
0.799141740252
0.813825032687
0.829243579347
0.84052500811
0.842625585541
0.83124276054
0.803608822761
0.7590279004
0.69906280537
0.627338689749
0.548996653679
0.469890899633
0.395667309093
0.330881769034
0.254151709376
0.325040418404
0.406999367932
0.494889692531
0.582311574655
0.662620303984
0.729988251475
0.78033008589
0.811932157595
0.825678067183
0.824832191044
0.814419292113
0.80030809972
0.788157837342
0.782410277365
0.785501928008
0.797432789271
0.815766352935
0.836060846614
0.852657046831
0.859686224256
0.852123615955
0.826704845535
0.782546312407
0.721361666202
0.647236238159
0.565997657321
0.484290634007
0.408514985766
0.343809578024
0.274789765734
0.344037961424
0.425988587632
0.514919800478
0.60367784635
0.68482750708
0.751854624725
0.800213688887
0.82804021221
0.836405524079
0.829070666923
0.811782615518
0.791235095085
0.773874180458
0.764755604388
0.76665166471
0.779562361424
0.800715396696
0.825055037773
0.846135209823
0.857262187623
0.852688996399
0.828654593719
0.784087650202
0.720852653201
0.643495113116
0.558529187888
0.473390095687
0.395231590123
0.329775515077
0.292359638718
0.359223517719
0.440422017256
0.529650314996
0.619000721265
0.700247510044
0.766189994491
0.811822485048
0.835129656639
0.837370567436
0.822802925913
0.797895918682
0.770168266857
0.746852896629
0.733619501113
0.733576167763
0.746722896578
0.769951600106
0.79759258523
0.82241292576
0.836893900583
0.834566323085
0.811172484794
0.765453327536
0.699424176388
0.618090720909
0.528653647939
0.439338683499
0.358053517261
0.291102971559
0.306762951938
0.37072887321
0.450661605036
0.539673346631
0.629102472255
0.709932748044
0.774276958253
0.816669234166
0.834943412983
0.830546281669
0.808232214738
0.775192610641
0.739771186385
0.709987719516
0.692125863515
0.689629495452
0.702498615327
0.727289346071
0.757718034202
0.785764902173
0.803086232979
0.802490628167
0.779223713224
0.731838701185
0.662501754851
0.576678742937
0.482256881186
0.388252403466
0.303326935515
0.234368278118
0.317985469327
0.378874475364
0.457362481974
0.545978709918
0.635307597394
0.715542402687
0.778109381153
0.817082484917
0.830144713455
0.818930582526
0.788691132682
0.747339974214
0.704045820021
0.667615299006
0.644946025015
0.639817664735
0.652230218165
0.678404018619
0.711441452252
0.742535890159
0.762518619443
0.763476029812
0.740157080712
0.690927256388
0.618103557362
0.527612031508
0.428026423472
0.329153474967
0.240408747797
0.169263021199
0.326070639751
0.384086088219
0.461332727276
0.549756799235
0.639188806227
0.719031498689
0.780024603076
0.815781892356
0.823835528281
0.8060077554
0.768046280308
0.718586925133
0.667623398669
0.624749181172
0.597475846856
0.589918852023
0.602078196673
0.629838424503
0.665687961302
0.70003332681
0.722880812236
0.725594595451
0.70242696986
0.651555690914
0.575448596861
0.480491914733
0.375945918075
0.27240785645
0.180047227726
0.106917789592
0.331088561153
0.386798448149
0.463371715754
0.552171627825
0.642274750431
0.72229332616
0.782280552567
0.81539002346
0.81900306287
0.795129644136
0.750014139893
0.693014584111
0.634949681472
0.586199763593
0.554890365049
0.545472731761
0.55794686373
0.587861515034
0.627091151097
0.665255440304
0.691535677971
0.69657383013
0.674125524144
0.622180786676
0.543358293694
0.444504451389
0.335566062208
0.227930883561
0.132522349381
0.0579771958096
0.333105988334
0.387362828175
0.464115238641
0.554143505141
0.645770257678
0.72681723099
0.786651093733
0.817965260555
0.817990217766
0.788923667495
0.737506648418
0.673819406344
0.609505641847
0.555732537901
0.521239589446
0.51081383202
0.524455265622
0.557376854716
0.60083910436
0.643674831582
0.674240335805
0.682455371224
0.661578899161
0.609413217486
0.528727839891
0.426829351726
0.314351084337
0.203471302984
0.105867377665
0.0307590229715
0.3321627661
0.385974682924
0.463914360392
0.556179105459
0.650337612064
0.733421107098
0.794109730315
0.824636717206
0.822081716356
0.788830158686
0.732119748914
0.662752944686
0.593198442471
0.535410276596
0.498741902368
0.488316144942
0.504133004317
0.541069655339
0.589772642702
0.638287932078
0.674146826997
0.686546869814
0.668250355812
0.616871854069
0.535331715999
0.431396706112
0.316386684654
0.203270424735
0.104479232414
0.0298158007377
0.328258894451
0.382634012397
0.462769081005
0.558278428778
0.65597681359
0.742104954485
0.804656462315
0.835404393412
0.83127755864
0.79484911771
0.733853441382
0.659815199139
0.586028083343
0.525232979678
0.487397303816
0.477979670528
0.496980079815
0.538939916904
0.593891766125
0.649094741792
0.691255151545
0.708848325899
0.694139894097
0.644556696424
0.563169922018
0.458206514548
0.34167286316
0.227328248812
0.128357913629
0.055147529108
0.321354528581
0.377145361965
0.460328336028
0.559934800823
0.662025578159
0.75205087923
0.817317785989
0.849139175609
0.844293021231
0.805540211357
0.741111782788
0.663254616846
0.586087401786
0.523137874647
0.484987411467
0.477430416634
0.500466890148
0.54830242762
0.610355653015
0.673098829291
0.722413268194
0.746052088401
0.735784253113
0.688848873827
0.608467977402
0.503328686665
0.386123919663
0.271403465202
0.173106501472
0.102201678423
0.31138291369
0.369157458609
0.455956334227
0.560227912141
0.667279078098
0.761769535444
0.830319837231
0.863782681472
0.858785203585
0.818276020866
0.750982836154
0.669874742612
0.589895424385
0.52535946987
0.48746221547
0.48233385519
0.50997438903
0.564253622983
0.63397622065
0.704827593632
0.761864057783
0.792116519942
0.786857277268
0.743137712466
0.664330690119
0.559583512213
0.442275625695
0.32774732722
0.230691731042
0.162660465562
0.298273951833
0.358235565953
0.44885370079
0.557993749489
0.670208661732
0.769367633018
0.841404687496
0.876712344023
0.871766900293
0.829704702392
0.759750119203
0.675594455724
0.593006391996
0.52708736777
0.489646679815
0.487150311752
0.519598263582
0.580524551682
0.658119879285
0.737282806638
0.802244653702
0.839314115476
0.839266823081
0.798966430428
0.721936639825
0.617784932414
0.500577284045
0.38644449922
0.290833628258
0.225879278013
0.281984194145
0.343953919961
0.438212356511
0.55204191849
0.669241619514
0.772890147234
0.848234996899
0.885208508207
0.880136141128
0.836341970542
0.76354703137
0.67616484045
0.590789073715
0.523308022273
0.486144943258
0.486101609908
0.523178022222
0.590572406963
0.675861506998
0.763157031217
0.835865303689
0.879572807574
0.884558507952
0.847498329944
0.772066813578
0.668331619158
0.551045251433
0.437129022753
0.342783919503
0.280727526987
0.262527876693
0.325992073165
0.423377170388
0.541382604606
0.663053453372
0.770677896486
0.848816900298
0.886942625346
0.88122969388
0.835189909567
0.759040973372
0.667918613971
0.57924150319
0.509684783492
0.472285672377
0.474181732699
0.515372964459
0.5887218048
0.681191036227
0.776105516272
0.856046573111
0.905878478068
0.915383530179
0.881049925775
0.806703042608
0.702870720138
0.584991992017
0.470778678443
0.377185701863
0.317513626036
0.240003375867
0.304218239643
0.403986194188
0.525423697295
0.65082189045
0.761678445607
0.841867800214
0.880401935651
0.873304636445
0.824275435055
0.744028698485
0.648422367252
0.555700109071
0.483323917766
0.444944971199
0.448036621842
0.492598869696
0.571158362286
0.670063921753
0.771853554272
0.858283592128
0.913496094804
0.926776695297
0.894425861146
0.820419807825
0.715746553954
0.596531662084
0.481277460264
0.387692807005
0.329661244515
0.214610192107
0.278744923566
0.380064935812
0.504103708186
0.63239844611
0.745656313689
0.827065219471
0.865176965676
0.855864499109
0.803015081021
0.717839744456
0.616918641769
0.51932043657
0.443293974036
0.403104392396
0.406560833739
0.453663298066
0.536602643285
0.641113731171
0.748947716544
0.841035935795
0.90079823657
0.917023585823
0.885824722304
0.811328699209
0.704983714316
0.583601859078
0.466475969391
0.37206883983
0.314846991058
0.186653152872
0.249946852802
0.352058023537
0.477937165965
0.608367549446
0.723265830234
0.805133387978
0.842061845739
0.829773312598
0.772342778599
0.681477942826
0.574481169473
0.471246118042
0.390808485068
0.348047369142
0.351107701973
0.39998948356
0.486547782195
0.595903499287
0.709020938302
0.806006439736
0.869557639396
0.887966838198
0.857159046098
0.781412154016
0.672634538889
0.54832482107
0.428566344303
0.332575839229
0.275402804961
0.15653268415
0.218437707094
0.320792390862
0.447964257889
0.579982641469
0.695973690011
0.77775225426
0.81294977812
0.79713753295
0.734578237584
0.637476257147
0.523856167672
0.414436624553
0.329040175682
0.283159880015
0.285276458877
0.335389912268
0.425019518863
0.538672219706
0.656525466905
0.757860605065
0.824653058156
0.84469846105
0.813734094913
0.736188688388
0.62443079757
0.496645571714
0.373706862411
0.275585336367
0.217913471147
0.124722361745
0.185009209787
0.287377908671
0.415613002379
0.548989888143
0.66584420652
0.747304279358
0.780541371402
0.760975916285
0.693058361635
0.589489738617
0.469016835103
0.35318330238
0.262598539694
0.213369566369
0.214312893346
0.265428520624
0.357899937262
0.475620123938
0.597979681405
0.703434958376
0.773239166979
0.794691276048
0.763340837958
0.683767419073
0.568799754648
0.437309522837
0.310961083082
0.210479038151
0.152078844062
0.0917371113229
0.15054261945
0.253062168438
0.382497323817
0.517369546752
0.635223969955
0.716502386371
0.747915881585
0.724734051511
0.651595072565
0.541696641955
0.41450775939
0.292397072051
0.19676083054
0.144320014545
0.144226924625
0.196481560778
0.291931622448
0.413856129947
0.54085883267
0.650571083439
0.723523882544
0.746519532777
0.714919857722
0.633455261465
0.515414658421
0.380356255645
0.250734920425
0.148029191596
0.0890375036276
0.0580970069511
0.115907395159
0.219064014245
0.350185451288
0.487039231389
0.60637997941
0.687962959397
0.718039077777
0.691727092739
0.613852909491
0.498110891283
0.364692249662
0.2367906277
0.136589127358
0.0814226886877
0.0807794018642
0.134659266888
0.233574193583
0.360189241897
0.492321309872
0.606776754433
0.683364364033
0.708389775424
0.677027083398
0.594157529764
0.473530208095
0.335389854347
0.202981843657
0.0985386509239
0.0394416890692
0.0242923488499
0.0818639978779
0.186414067802
0.319978167249
0.459569885256
0.581153338837
0.663797263135
0.69329238542
0.664606626158
0.582753619349
0.461924394283
0.323032374345
0.190096198501
0.0860858200678
0.0289501394618
0.0285130364753
0.0847745111085
0.187910683569
0.31997265344
0.457990467405
0.577945486499
0.658924287335
0.686735840623
0.656366512366
0.572848382094
0.450390722541
0.309924798561
0.175486493141
0.0700622172441
0.0116163622433
