# vtk DataFile Version 2.0
Function: z = f(x,y,z)
ASCII
DATASET STRUCTURED_POINTS
DIMENSIONS 30 30 1
ORIGIN 0 0 0
SPACING 0.05 0.05 0.05
POINT_DATA 900
SCALARS f(x,y,z) float
LOOKUP_TABLE default
0.0516457936328
0.139645756915
0.227204023344
0.313004523909
0.395651270322
0.473762093691
0.546065816857
0.611487612172
0.669209258557
0.718695254834
0.759681538059
0.79212989563
0.816156953455
0.831950869169
0.839690826709
0.839483777926
0.83132972282
0.81512170954
0.790680554149
0.757818099011
0.71641771822
0.666517624377
0.608381880426
0.542545987546
0.469828166814
0.391303245878
0.308242401899
0.222027803767
0.134055439772
0.0456413789244
0.066038460501
0.153387316929
0.242324761648
0.33080955733
0.416507892776
0.497054284455
0.570323580231
0.634668534481
0.689083298713
0.733265888051
0.767570043652
0.79285591398
0.810266339345
0.820968243706
0.825904517793
0.825599802982
0.820054099272
0.80874276529
0.790722910302
0.764827610351
0.729914025129
0.685122006168
0.630097812314
0.565143428442
0.491264703043
0.410108881742
0.323801116674
0.23470689137
0.145160017028
0.057201730978
0.0803531808659
0.167409216054
0.258084124677
0.349611501089
0.438719711182
0.522059956783
0.596653110784
0.660279509582
0.711745677275
0.750983145289
0.778963458878
0.797445127577
0.808597206097
0.814565384717
0.817056260966
0.81701216574
0.814433099041
0.808376729969
0.797136460998
0.778566601849
0.750498097808
0.711172439344
0.659618081199
0.59590349195
0.521222147498
0.437793711446
0.348597310903
0.256981744039
0.166218644965
0.0790744193261
0.0943577072549
0.181351235936
0.273993923198
0.368794195074
0.461542594547
0.547907008805
0.624054335765
0.687192493845
0.735940379734
0.770463041157
0.792349827469
0.804257609272
0.80938165568
0.810846423295
0.811122216438
0.811569055532
0.812186940577
0.811615851151
0.807385482931
0.796371379316
0.775378271192
0.741749287957
0.693895080257
0.631650600365
0.556396951593
0.470926215524
0.379071494239
0.285164900551
0.193415891477
0.107316040984
0.107805688793
0.194801527542
0.289476810016
0.387614793929
0.484068199357
0.573521598844
0.651287915336
0.714002649273
0.76009706993
0.789969741336
0.805827816944
0.811226528425
0.810387359295
0.807413532477
0.805539059089
0.806541649077
0.810421302439
0.815400309231
0.818244658336
0.81485112683
0.800998231195
0.773130739764
0.729041499081
0.668331945119
0.592570808602
0.505122589089
0.410674363636
0.314541559697
0.221871457197
0.136880798423
0.120453213324
0.207342652601
0.303941820746
0.405308807158
0.505358509
0.597792184179
0.677068780663
0.739251380915
0.782583626802
0.807697598651
0.817418254017
0.816199185636
0.809288091428
0.801766960638
0.797633511179
0.79908314252
0.806115854661
0.816536248132
0.826346605021
0.830464936084
0.8236435434
0.801428834233
0.760995851028
0.701712513457
0.625335179654
0.535800767157
0.438650327997
0.340182604267
0.246482698803
0.162492522208
0.132075955466
0.218599584265
0.316863227077
0.421199804981
0.524586392233
0.619740932096
0.700268397567
0.761659453131
0.801970113241
0.822065974527
0.825389798645
0.817293539396
0.804051109106
0.791723263338
0.785071426802
0.786708688491
0.796635048405
0.81223741755
0.828754371218
0.840125153844
0.840075853105
0.823254515196
0.786218378463
0.728101846278
0.650848904184
0.558968887699
0.458856823825
0.357794769298
0.262805649864
0.179556544443
0.142484239752
0.22828163213
0.327849323666
0.43479506712
0.541158113838
0.638673092443
0.720091000958
0.78033008589
0.817258734281
0.831976059062
0.828542625988
0.81320874993
0.793274557613
0.775779570925
0.76624892137
0.767713387464
0.780172969207
0.800596888083
0.823460012588
0.841722820835
0.848085186097
0.836296793504
0.802297077301
0.744986924557
0.66649794823
0.571911901813
0.468477787284
0.364460976018
0.26782221667
0.18495375648
0.151533674227
0.236211293521
0.336689497119
0.44585086946
0.554796838982
0.654278719667
0.736193534564
0.794887112201
0.82804021221
0.836985463824
0.826401236896
0.803436207365
0.77641671636
0.753361052089
0.740558052852
0.741456186689
0.756055453599
0.780907385544
0.809723144222
0.834484441427
0.846864936029
0.839715952089
0.808359119753
0.75146180979
0.671343262566
0.573657649555
0.466507947707
0.359142843039
0.260460907116
0.177579555494
0.159129758682
0.242335276991
0.343371664746
0.454396338071
0.565572902493
0.666669357354
0.748728750729
0.805524493169
0.834549716893
0.837370567436
0.819283218751
0.788334707843
0.753877590247
0.724908920489
0.708481243667
0.708460717344
0.724847341518
0.753774958628
0.788191023577
0.819098481836
0.837144777874
0.834282874683
0.805216598311
0.748379803224
0.666279357202
0.565141849692
0.453924232623
0.34285850665
0.241781066247
0.158534495291
0.165225893776
0.246716007447
0.34806727571
0.460711946368
0.57387580204
0.676343527427
0.75830419563
0.812958799221
0.83761284301
0.834065988831
0.808232214738
0.769056918804
0.726918870965
0.691793892071
0.671498234013
0.670315743878
0.688246421666
0.72100642029
0.760779487859
0.797589803523
0.821058597346
0.822240471255
0.795221447196
0.738201863335
0.653876214862
0.549043509205
0.433514673263
0.318505022335
0.214788773802
0.130933679861
0.169815336107
0.249505275797
0.351086655223
0.46526655387
0.580332931447
0.684087158016
0.765864331702
0.8182930271
0.838491121609
0.828491793364
0.794826824518
0.747339974214
0.697436226788
0.656070169412
0.631821760774
0.629392537484
0.64878249954
0.685290110335
0.730335411179
0.772963814902
0.801770337167
0.80691121883
0.78185467774
0.72456753576
0.637931915493
0.529319242343
0.409394418185
0.290356072956
0.183916246949
0.099367860678
0.172918666718
0.250904759741
0.352812577645
0.468624031596
0.585689258393
0.690826313458
0.772516319942
0.822815434463
0.838653907006
0.82229843201
0.780898595727
0.725196518366
0.667623398669
0.620112590127
0.592007758223
0.588428129092
0.609373702732
0.649725253011
0.700139114446
0.748681933544
0.782922511564
0.792118728297
0.769120997491
0.711662624707
0.622813359961
0.510517046633
0.386292561573
0.263321849359
0.154254773192
0.0691094219062
0.174569089898
0.251120387038
0.353623694202
0.471335754241
0.590668881042
0.697457815386
0.779329705451
0.827768289877
0.839516191239
0.817073620275
0.768207967338
0.704559713704
0.639586272518
0.586199763593
0.554507559207
0.550046575019
0.572816811026
0.617281351573
0.673332824382
0.728059109638
0.768002794197
0.781523396783
0.760853527043
0.70349297424
0.612699115797
0.496988213074
0.368733117896
0.24209908948
0.130673813937
0.0452005484196
0.174798226341
0.250318550169
0.353821169165
0.473837657861
0.595842507236
0.704687143431
0.787144739649
0.834126616551
0.842187769301
0.81406192494
0.75813427792
0.686943670584
0.61497373048
0.556115343743
0.521239589446
0.51630107277
0.541299793716
0.590281147102
0.652374053855
0.713687627839
0.759738241509
0.777987052518
0.760048866416
0.703189956163
0.610855326594
0.492133657049
0.360251774322
0.230358252275
0.116978599927
0.0315812427487
0.173624949904
0.248591832906
0.35357129622
0.476369746061
0.601523850497
0.712901721029
0.796422555885
0.84242525775
0.847277194376
0.813945609105
0.751433500488
0.673178071937
0.594689165402
0.530836433339
0.493254661617
0.488316144942
0.516020883312
0.569996582024
0.638608455208
0.706986850408
0.759621925674
0.783076477594
0.768347507616
0.7124677724
0.619069904192
0.49781500031
0.362783862522
0.23010837933
0.115251882664
0.0304079663114
0.171049260586
0.245940235249
0.352874075369
0.47893201884
0.607712910825
0.72210154818
0.807163154162
0.852664213476
0.854784466465
0.81672467277
0.748105635043
0.663262917763
0.578732577283
0.510363032381
0.470552775722
0.466091791533
0.496980079815
0.556427656339
0.632036028441
0.707956777343
0.767653846692
0.796791672009
0.785749450643
0.73132642295
0.637342848591
0.514032242858
0.376329382495
0.241349470646
0.125493662148
0.0416807191077
0.167052284532
0.242271173426
0.351563212922
0.481284472595
0.614095974698
0.731899201448
0.818905401126
0.864308640461
0.864101032383
0.821716852835
0.747394708569
0.656368525131
0.566200573278
0.493718038108
0.452083119081
0.44850348995
0.482979150713
0.54830242762
0.631311121211
0.715178046386
0.782340932389
0.817565853674
0.810614203489
0.758051705892
0.663886247951
0.538923762938
0.398953002572
0.262072484636
0.145621186877
0.0632430397198
0.161602401046
0.237418254955
0.349337544611
0.482991171269
0.620102334274
0.741589201202
0.83080904536
0.876383515498
0.874117097136
0.827677582519
0.747921382497
0.650980783684
0.555444271241
0.479117796586
0.435927265975
0.433498042685
0.471830126714
0.543298154787
0.63397622065
0.726058372881
0.800956126322
0.842537194357
0.839945166138
0.789512249418
0.695433958679
0.56908864517
0.427119035584
0.288606962344
0.171829226107
0.0911549256171
0.15466640584
0.231175552079
0.345818419209
0.483500740168
0.625007891389
0.750274725809
0.841804541762
0.887646570019
0.883417668688
0.833019146316
0.747925217853
0.645166530981
0.544357785262
0.464283698437
0.419633883557
0.418451393422
0.460736228032
0.538445334587
0.636889100036
0.737282806638
0.820011754831
0.868045296933
0.869909217994
0.821702209467
0.727807413244
0.600175598554
0.456303467063
0.316256165834
0.199248318434
0.120374191925
0.146223717872
0.223341387096
0.340623062356
0.48224930827
0.628067678364
0.757029710932
0.850784729335
0.896809546366
0.890533392722
0.836091093251
0.745574667002
0.636913122726
0.530747374387
0.446840906047
0.400647037555
0.400626511231
0.446779327076
0.530644742768
0.636769438459
0.745389930088
0.835865303689
0.890266550512
0.896501651508
0.85043578183
0.75663971078
0.627636625564
0.481777202822
0.34010990426
0.222787176353
0.145628454481
0.136281080542
0.213763969101
0.333441148839
0.478768016059
0.628654301375
0.761068228441
0.856805145643
0.902769447797
0.894202738189
0.835473357969
0.739291130284
0.624483424953
0.512717370343
0.424735216839
0.376753991082
0.377652124919
0.427429618349
0.517208039528
0.630770361811
0.747374334815
0.845352830174
0.905878478068
0.916241455349
0.872073420869
0.77813277134
0.647515111948
0.499425094306
0.35589449476
0.238013582695
0.16232696181
0.124885093193
0.202380873183
0.324101229497
0.472776390119
0.626378262753
0.761891756413
0.859258244511
0.904809703886
0.893600110411
0.830231321537
0.728030964513
0.606724770224
0.48900608144
0.396595914867
0.346475003943
0.347939470037
0.40098931315
0.496328411911
0.616976032882
0.741211159359
0.846340448572
0.912638169634
0.926776695297
0.88415416811
0.7897166122
0.657132050728
0.506459110283
0.360712881849
0.241921457723
0.167354609921
0.112130256032
0.189245390792
0.312615387019
0.46424530438
0.62116922767
0.759388751262
0.857991273594
0.902736353526
0.888490339521
0.820088605332
0.711476582306
0.583278362396
0.459213502776
0.361981786473
0.309327653719
0.310964915408
0.366893571539
0.467399811221
0.594739194218
0.726211937506
0.838098483909
0.909774741476
0.927295278859
0.885824722304
0.79049672335
0.655551723136
0.501902323224
0.353546929241
0.233451456391
0.159610845009
0.0981609610158
0.174535024601
0.299194234799
0.453418482957
0.61330403096
0.75386915854
0.853347289163
0.89692556371
0.879282703233
0.805487597785
0.690103482815
0.554652811342
0.423881354943
0.321467662965
0.265919882439
0.26736951378
0.325816556988
0.431129511647
0.564800230727
0.703150164882
0.821433542534
0.898127910664
0.918670033822
0.877991021957
0.781412154016
0.643746289117
0.486760003796
0.33543501832
0.213675070803
0.1402002699
0.0831668836104
0.158540465016
0.28422947818
0.440788646128
0.603376407838
0.746027728402
0.84612205631
0.888274114467
0.866974996512
0.7875271088
0.665111490879
0.522148956837
0.384411492653
0.276556413997
0.217855574692
0.218858164679
0.279564183958
0.389424442589
0.529167086748
0.674134800764
0.79855559866
0.880008666346
0.903312964275
0.863166086093
0.76507693816
0.62443079757
0.463848215834
0.309294227861
0.185610394672
0.11224199324
0.0673723491975
0.141636738885
0.268246845473
0.427032223673
0.592213489551
0.736842293559
0.837444109213
0.878061241439
0.852997156466
0.767787776951
0.63823194654
0.48764884039
0.342836658882
0.229431484006
0.167468876384
0.167915715478
0.230772001289
0.345070854352
0.490776714049
0.642253498387
0.772703006986
0.85880606469
0.88476382785
0.845040373812
0.745332236347
0.601597110527
0.437309522837
0.279417822826
0.153701394425
0.0803306829265
0.051021269934
0.124241284476
0.251837301063
0.412913706088
0.580753292707
0.727424396733
0.828598516706
0.867745539575
0.838981304158
0.748075249413
0.611444023086
0.453305161401
0.301483079142
0.182592624621
0.117433065255
0.117388970029
0.182460338945
0.301262603014
0.452996494822
0.611047166056
0.747590201932
0.838408066227
0.867084111192
0.827848897872
0.726586587448
0.579827292972
0.411899515901
0.250734920425
0.123050713387
0.0497425083941
0.0343599966945
0.106765950825
0.235578192145
0.399175938728
0.569904160824
0.7188478796
0.820824618626
0.858731846873
0.826497775746
0.730125360505
0.586649052996
0.42118475051
0.262583082234
0.138437662802
0.0703114664253
0.0700067516142
0.137523518369
0.261059508178
0.419051746832
0.583906619696
0.726773497583
0.822536483202
0.854161124706
0.815644466837
0.713058298189
0.56350514979
0.392167498072
0.227960321867
0.0985386509239
0.0255232671715
0.0176207769517
0.0895709562841
0.219957707951
0.386435081707
0.560410224892
0.711984844033
0.815122487726
0.852148206964
0.816802585741
0.715322095618
0.56535899254
0.392927534866
0.227904566187
0.0988624674578
0.0281279196846
0.0279208709015
0.0982413211087
0.226869322272
0.391478193385
0.563495553492
0.713044559004
0.814110951561
0.849042475218
0.811602658414
0.708050917155
0.556062200448
0.381672959697
0.214781488375
0.0839806391417
0.0116163622433
