# vtk DataFile Version 3.0
vtk output
ASCII
DATASET STRUCTURED_GRID
DIMENSIONS 2 2 2
POINTS 8 float
2.667 -3.7747 23.8329
2.94346 -3.7482 23.66
3.21986 -3.7217 23.49
3.50007 -3.7020 23.37
3.9116 -3.7270 23.53
4.1656 -3.69529 23.33
4.2278 -3.7105 22.48
4.3876 -3.6832 21.73
POINT_DATA 8
SCALARS density float
LOOKUP_TABLE default
0.498983 0.376668 0.333115 0.311612
0.267114 0.639897 0.479756 0.477011
