# vtk DataFile Version 2.0
Volume example
ASCII
DATASET STRUCTURED_POINTS
DIMENSIONS 30 30 30
SPACING 0.033333 0.033333 0.033333
ORIGIN 0 0 0
POINT_DATA 27000
SCALARS density float 1
LOOKUP_TABLE default
  0.5710031    
  0.5875013    
  0.6041166    
  0.6207672    
  0.6373500    
  0.6537346    
  0.6697589    
  0.6852224    
  0.6998819    
  0.7134486    
  0.7255906    
  0.7359443    
  0.7441378    
  0.7498280    
  0.7527471    
  0.7527471    
  0.7498280    
  0.7441378    
  0.7359443    
  0.7255906    
  0.7134486    
  0.6998819    
  0.6852224    
  0.6697589    
  0.6537346    
  0.6373500    
  0.6207672    
  0.6041165    
  0.5875013    
  0.5710031    
  0.5775210    
  0.5945769    
  0.6118075    
  0.6291366    
  0.6464655    
  0.6636671    
  0.6805795    
  0.6969979    
  0.7126666    
  0.7272730    
  0.7404464    
  0.7517670    
  0.7607908    
  0.7670953    
  0.7703426    
  0.7703426    
  0.7670953    
  0.7607908    
  0.7517670    
  0.7404464    
  0.7272730    
  0.7126666    
  0.6969979    
  0.6805795    
  0.6636671    
  0.6464654    
  0.6291366    
  0.6118075    
  0.5945769    
  0.5775210    
  0.5834392    
  0.6010200    
  0.6188340    
  0.6368116    
  0.6548608    
  0.6728604    
  0.6906520    
  0.7080300    
  0.7247309    
  0.7404216    
  0.7546935    
  0.7670662    
  0.7770121    
  0.7840111    
  0.7876337    
  0.7876337    
  0.7840111    
  0.7770121    
  0.7670662    
  0.7546935    
  0.7404216    
  0.7247309    
  0.7080300    
  0.6906520    
  0.6728604    
  0.6548608    
  0.6368116    
  0.6188339    
  0.6010200    
  0.5834392    
  0.5887421    
  0.6068086    
  0.6251665    
  0.6437538    
  0.6624867    
  0.6812522    
  0.6998991    
  0.7182257    
  0.7359654    
  0.7527704    
  0.7681976    
  0.7817044    
  0.7926687    
  0.8004506    
  0.8045025    
  0.8045025    
  0.8004506    
  0.7926687    
  0.7817044    
  0.7681976    
  0.7527704    
  0.7359654    
  0.7182257    
  0.6998991    
  0.6812522    
  0.6624867    
  0.6437538    
  0.6251665    
  0.6068086    
  0.5887421    
  0.5934249    
  0.6119332    
  0.6307890    
  0.6499387    
  0.6693082    
  0.6887950    
  0.7082578    
  0.7275036    
  0.7462690    
  0.7641989    
  0.7808220    
  0.7955356    
  0.8076143    
  0.8162748    
  0.8208170    
  0.8208170    
  0.8162748    
  0.8076143    
  0.7955356    
  0.7808220    
  0.7641989    
  0.7462691    
  0.7275036    
  0.7082578    
  0.6887950    
  0.6693082    
  0.6499387    
  0.6307889    
  0.6119332    
  0.5934249    
  0.5974948    
  0.6163973    
  0.6356999    
  0.6553581    
  0.6753082    
  0.6954594    
  0.7156836    
  0.7358005    
  0.7555566    
  0.7745977    
  0.7924345    
  0.8084105    
  0.8216931    
  0.8313316    
  0.8364317    
  0.8364317    
  0.8313316    
  0.8216931    
  0.8084105    
  0.7924345    
  0.7745977    
  0.7555567    
  0.7358005    
  0.7156836    
  0.6954594    
  0.6753081    
  0.6553581    
  0.6356999    
  0.6163973    
  0.5974948    
  0.6009709    
  0.6202178    
  0.6399129    
  0.6600207    
  0.6804882    
  0.7012373    
  0.7221550    
  0.7430770    
  0.7637658    
  0.7838772    
  0.8029159    
  0.8201842    
  0.8347446    
  0.8454581    
  0.8511881    
  0.8511881    
  0.8454581    
  0.8347446    
  0.8201842    
  0.8029159    
  0.7838772    
  0.7637659    
  0.7430770    
  0.7221550    
  0.7012373    
  0.6804881    
  0.6600207    
  0.6399128    
  0.6202178    
  0.6009708    
  0.6038833    
  0.6234245    
  0.6434566    
  0.6639525    
  0.6848698    
  0.7061434    
  0.7276759    
  0.7493217    
  0.7708637    
  0.7919761    
  0.8121712    
  0.8307264    
  0.8466112    
  0.8584854    
  0.8649175    
  0.8649175    
  0.8584854    
  0.8466113    
  0.8307264    
  0.8121712    
  0.7919761    
  0.7708637    
  0.7493217    
  0.7276759    
  0.7061434    
  0.6848698    
  0.6639525    
  0.6434566    
  0.6234245    
  0.6038833    
  0.6062720    
  0.6260585    
  0.6463727    
  0.6671951    
  0.6884931    
  0.7102139    
  0.7322758    
  0.7545527    
  0.7768504    
  0.7988685    
  0.8201389    
  0.8399335    
  0.8571495    
  0.8702450    
  0.8774444    
  0.8774444    
  0.8702450    
  0.8571495    
  0.8399335    
  0.8201389    
  0.7988685    
  0.7768504    
  0.7545527    
  0.7322758    
  0.7102139    
  0.6884930    
  0.6671951    
  0.6463726    
  0.6260585    
  0.6062720    
  0.6081842    
  0.6281697    
  0.6487134    
  0.6698027    
  0.6914133    
  0.7135040    
  0.7360072    
  0.7588158    
  0.7817597    
  0.8045669    
  0.8267984    
  0.8477396    
  0.8662421    
  0.8805782    
  0.8885919    
  0.8885919    
  0.8805782    
  0.8662421    
  0.8477396    
  0.8267984    
  0.8045669    
  0.7817597    
  0.7588158    
  0.7360072    
  0.7135040    
  0.6914133    
  0.6698027    
  0.6487134    
  0.6281697    
  0.6081842    
  0.6096708    
  0.6298127    
  0.6505372    
  0.6718375    
  0.6936964    
  0.7160822    
  0.7389401    
  0.7621799    
  0.7856539    
  0.8091196    
  0.8321717    
  0.8541234    
  0.8738092    
  0.8893470    
  0.8981883    
  0.8981883    
  0.8893470    
  0.8738092    
  0.8541234    
  0.8321717    
  0.8091196    
  0.7856539    
  0.7621799    
  0.7389401    
  0.7160822    
  0.6936964    
  0.6718375    
  0.6505372    
  0.6298127    
  0.6096708    
  0.6107834    
  0.6310432    
  0.6519045    
  0.6733647    
  0.6954125    
  0.7180236    
  0.7411539    
  0.7647272    
  0.7886154    
  0.8126025    
  0.8363171    
  0.8591077    
  0.8798153    
  0.8964444    
  0.9060754    
  0.9060754    
  0.8964444    
  0.8798153    
  0.8591077    
  0.8363171    
  0.8126025    
  0.7886155    
  0.7647272    
  0.7411538    
  0.7180236    
  0.6954125    
  0.6733647    
  0.6519045    
  0.6310432    
  0.6107834    
  0.6115696    
  0.6319133    
  0.6528720    
  0.6744462    
  0.6966290    
  0.7194019    
  0.7427283    
  0.7665431    
  0.7907336    
  0.8151051    
  0.8393160    
  0.8627493    
  0.8842662    
  0.9017998    
  0.9121169    
  0.9121169    
  0.9017998    
  0.8842662    
  0.8627493    
  0.8393160    
  0.8151051    
  0.7907336    
  0.7665431    
  0.7427283    
  0.7194019    
  0.6966290    
  0.6744462    
  0.6528720    
  0.6319133    
  0.6115696    
  0.6120695    
  0.6324667    
  0.6534877    
  0.6751349    
  0.6974043    
  0.7202809    
  0.7437337    
  0.7677047    
  0.7920917    
  0.8167151    
  0.8412544    
  0.8651205    
  0.8871964    
  0.9053777    
  0.9162058    
  0.9162058    
  0.9053777    
  0.8871965    
  0.8651205    
  0.8412544    
  0.8167151    
  0.7920917    
  0.7677047    
  0.7437337    
  0.7202809    
  0.6974043    
  0.6751349    
  0.6534876    
  0.6324667    
  0.6120695    
  0.6123119    
  0.6327351    
  0.6537863    
  0.6754691    
  0.6977806    
  0.7207080    
  0.7442225    
  0.7682700    
  0.7927534    
  0.8175010    
  0.8422036    
  0.8662868    
  0.8886477    
  0.9071668    
  0.9182686    
  0.9182686    
  0.9071668    
  0.8886477    
  0.8662868    
  0.8422036    
  0.8175010    
  0.7927534    
  0.7682700    
  0.7442225    
  0.7207080    
  0.6977806    
  0.6754691    
  0.6537863    
  0.6327351    
  0.6123119    
  0.6123119    
  0.6327351    
  0.6537863    
  0.6754691    
  0.6977806    
  0.7207080    
  0.7442225    
  0.7682700    
  0.7927534    
  0.8175010    
  0.8422036    
  0.8662868    
  0.8886477    
  0.9071668    
  0.9182686    
  0.9182686    
  0.9071668    
  0.8886477    
  0.8662868    
  0.8422036    
  0.8175010    
  0.7927534    
  0.7682700    
  0.7442225    
  0.7207080    
  0.6977806    
  0.6754691    
  0.6537863    
  0.6327351    
  0.6123119    
  0.6120695    
  0.6324667    
  0.6534877    
  0.6751349    
  0.6974043    
  0.7202809    
  0.7437337    
  0.7677047    
  0.7920917    
  0.8167151    
  0.8412544    
  0.8651205    
  0.8871964    
  0.9053777    
  0.9162058    
  0.9162058    
  0.9053777    
  0.8871965    
  0.8651205    
  0.8412544    
  0.8167151    
  0.7920917    
  0.7677047    
  0.7437337    
  0.7202809    
  0.6974043    
  0.6751349    
  0.6534876    
  0.6324667    
  0.6120695    
  0.6115696    
  0.6319133    
  0.6528720    
  0.6744462    
  0.6966290    
  0.7194019    
  0.7427283    
  0.7665431    
  0.7907336    
  0.8151051    
  0.8393160    
  0.8627493    
  0.8842662    
  0.9017998    
  0.9121169    
  0.9121169    
  0.9017998    
  0.8842662    
  0.8627493    
  0.8393160    
  0.8151051    
  0.7907336    
  0.7665431    
  0.7427283    
  0.7194019    
  0.6966290    
  0.6744462    
  0.6528720    
  0.6319133    
  0.6115696    
  0.6107834    
  0.6310432    
  0.6519045    
  0.6733647    
  0.6954125    
  0.7180236    
  0.7411539    
  0.7647272    
  0.7886154    
  0.8126025    
  0.8363171    
  0.8591077    
  0.8798153    
  0.8964444    
  0.9060754    
  0.9060754    
  0.8964444    
  0.8798153    
  0.8591077    
  0.8363171    
  0.8126025    
  0.7886155    
  0.7647272    
  0.7411538    
  0.7180236    
  0.6954125    
  0.6733647    
  0.6519045    
  0.6310432    
  0.6107834    
  0.6096708    
  0.6298127    
  0.6505372    
  0.6718375    
  0.6936964    
  0.7160822    
  0.7389401    
  0.7621799    
  0.7856539    
  0.8091196    
  0.8321717    
  0.8541234    
  0.8738092    
  0.8893470    
  0.8981883    
  0.8981883    
  0.8893470    
  0.8738092    
  0.8541234    
  0.8321717    
  0.8091196    
  0.7856539    
  0.7621799    
  0.7389401    
  0.7160822    
  0.6936964    
  0.6718375    
  0.6505372    
  0.6298127    
  0.6096708    
  0.6081842    
  0.6281697    
  0.6487134    
  0.6698027    
  0.6914133    
  0.7135040    
  0.7360072    
  0.7588158    
  0.7817597    
  0.8045669    
  0.8267984    
  0.8477396    
  0.8662421    
  0.8805782    
  0.8885919    
  0.8885919    
  0.8805782    
  0.8662421    
  0.8477396    
  0.8267984    
  0.8045669    
  0.7817597    
  0.7588158    
  0.7360072    
  0.7135040    
  0.6914133    
  0.6698027    
  0.6487134    
  0.6281697    
  0.6081842    
  0.6062720    
  0.6260585    
  0.6463727    
  0.6671951    
  0.6884931    
  0.7102140    
  0.7322758    
  0.7545527    
  0.7768504    
  0.7988685    
  0.8201389    
  0.8399336    
  0.8571495    
  0.8702450    
  0.8774445    
  0.8774445    
  0.8702450    
  0.8571496    
  0.8399336    
  0.8201389    
  0.7988685    
  0.7768504    
  0.7545527    
  0.7322758    
  0.7102140    
  0.6884931    
  0.6671951    
  0.6463727    
  0.6260585    
  0.6062720    
  0.6038833    
  0.6234245    
  0.6434566    
  0.6639525    
  0.6848698    
  0.7061434    
  0.7276759    
  0.7493217    
  0.7708637    
  0.7919761    
  0.8121712    
  0.8307264    
  0.8466112    
  0.8584854    
  0.8649175    
  0.8649175    
  0.8584854    
  0.8466113    
  0.8307264    
  0.8121712    
  0.7919761    
  0.7708637    
  0.7493217    
  0.7276759    
  0.7061434    
  0.6848698    
  0.6639525    
  0.6434566    
  0.6234245    
  0.6038833    
  0.6009709    
  0.6202178    
  0.6399129    
  0.6600207    
  0.6804882    
  0.7012373    
  0.7221550    
  0.7430770    
  0.7637658    
  0.7838772    
  0.8029159    
  0.8201842    
  0.8347446    
  0.8454581    
  0.8511881    
  0.8511881    
  0.8454581    
  0.8347446    
  0.8201842    
  0.8029159    
  0.7838772    
  0.7637659    
  0.7430770    
  0.7221550    
  0.7012373    
  0.6804881    
  0.6600207    
  0.6399128    
  0.6202178    
  0.6009708    
  0.5974948    
  0.6163973    
  0.6356999    
  0.6553581    
  0.6753082    
  0.6954594    
  0.7156836    
  0.7358005    
  0.7555566    
  0.7745977    
  0.7924345    
  0.8084105    
  0.8216931    
  0.8313316    
  0.8364317    
  0.8364317    
  0.8313316    
  0.8216931    
  0.8084105    
  0.7924345    
  0.7745977    
  0.7555567    
  0.7358005    
  0.7156836    
  0.6954594    
  0.6753081    
  0.6553581    
  0.6356999    
  0.6163973    
  0.5974948    
  0.5934249    
  0.6119332    
  0.6307890    
  0.6499387    
  0.6693082    
  0.6887950    
  0.7082578    
  0.7275036    
  0.7462690    
  0.7641989    
  0.7808220    
  0.7955356    
  0.8076143    
  0.8162748    
  0.8208170    
  0.8208170    
  0.8162748    
  0.8076143    
  0.7955356    
  0.7808220    
  0.7641989    
  0.7462691    
  0.7275036    
  0.7082578    
  0.6887950    
  0.6693082    
  0.6499387    
  0.6307889    
  0.6119332    
  0.5934249    
  0.5887421    
  0.6068086    
  0.6251665    
  0.6437538    
  0.6624867    
  0.6812522    
  0.6998991    
  0.7182257    
  0.7359654    
  0.7527704    
  0.7681976    
  0.7817044    
  0.7926687    
  0.8004506    
  0.8045025    
  0.8045025    
  0.8004506    
  0.7926687    
  0.7817044    
  0.7681976    
  0.7527704    
  0.7359654    
  0.7182257    
  0.6998991    
  0.6812522    
  0.6624867    
  0.6437538    
  0.6251665    
  0.6068086    
  0.5887421    
  0.5834392    
  0.6010200    
  0.6188340    
  0.6368116    
  0.6548608    
  0.6728604    
  0.6906520    
  0.7080300    
  0.7247309    
  0.7404216    
  0.7546935    
  0.7670662    
  0.7770121    
  0.7840111    
  0.7876337    
  0.7876337    
  0.7840111    
  0.7770121    
  0.7670662    
  0.7546935    
  0.7404216    
  0.7247309    
  0.7080300    
  0.6906520    
  0.6728604    
  0.6548608    
  0.6368116    
  0.6188339    
  0.6010200    
  0.5834392    
  0.5775210    
  0.5945769    
  0.6118075    
  0.6291366    
  0.6464655    
  0.6636671    
  0.6805795    
  0.6969979    
  0.7126666    
  0.7272730    
  0.7404464    
  0.7517670    
  0.7607908    
  0.7670953    
  0.7703426    
  0.7703426    
  0.7670953    
  0.7607908    
  0.7517670    
  0.7404464    
  0.7272730    
  0.7126666    
  0.6969979    
  0.6805795    
  0.6636671    
  0.6464654    
  0.6291366    
  0.6118075    
  0.5945769    
  0.5775210    
  0.5710031    
  0.5875013    
  0.6041166    
  0.6207672    
  0.6373500    
  0.6537346    
  0.6697589    
  0.6852224    
  0.6998819    
  0.7134486    
  0.7255906    
  0.7359443    
  0.7441378    
  0.7498280    
  0.7527471    
  0.7527471    
  0.7498280    
  0.7441378    
  0.7359443    
  0.7255906    
  0.7134486    
  0.6998819    
  0.6852224    
  0.6697589    
  0.6537346    
  0.6373500    
  0.6207672    
  0.6041165    
  0.5875013    
  0.5710031    
  0.5775210    
  0.5945769    
  0.6118075    
  0.6291366    
  0.6464655    
  0.6636671    
  0.6805795    
  0.6969979    
  0.7126666    
  0.7272730    
  0.7404464    
  0.7517670    
  0.7607908    
  0.7670953    
  0.7703426    
  0.7703426    
  0.7670953    
  0.7607908    
  0.7517670    
  0.7404464    
  0.7272730    
  0.7126666    
  0.6969979    
  0.6805795    
  0.6636671    
  0.6464654    
  0.6291366    
  0.6118075    
  0.5945769    
  0.5775210    
  0.5838877    
  0.6015089    
  0.6193681    
  0.6373962    
  0.6555018    
  0.6735642    
  0.6914255    
  0.7088804    
  0.7256646    
  0.7414438    
  0.7558065    
  0.7682673    
  0.7782914    
  0.7853498    
  0.7890047    
  0.7890048    
  0.7853498    
  0.7782914    
  0.7682673    
  0.7558065    
  0.7414438    
  0.7256646    
  0.7088804    
  0.6914255    
  0.6735642    
  0.6555018    
  0.6373962    
  0.6193681    
  0.6015089    
  0.5838876    
  0.5896075    
  0.6077548    
  0.6262033    
  0.6448928    
  0.6637410    
  0.6826366    
  0.7014297    
  0.7199200    
  0.7378410    
  0.7548430    
  0.7704774    
  0.7841908    
  0.7953435    
  0.8032724    
  0.8074055    
  0.8074055    
  0.8032724    
  0.7953435    
  0.7841908    
  0.7704774    
  0.7548430    
  0.7378410    
  0.7199200    
  0.7014297    
  0.6826366    
  0.6637409    
  0.6448928    
  0.6262033    
  0.6077548    
  0.5896075    
  0.5946664    
  0.6132940    
  0.6322846    
  0.6515875    
  0.6711313    
  0.6908169    
  0.7105066    
  0.7300104    
  0.7490676    
  0.7673219    
  0.7842960    
  0.7993706    
  0.8117893    
  0.8207229    
  0.8254195    
  0.8254195    
  0.8207229    
  0.8117893    
  0.7993706    
  0.7842960    
  0.7673219    
  0.7490676    
  0.7300104    
  0.7105065    
  0.6908169    
  0.6711313    
  0.6515875    
  0.6322846    
  0.6132940    
  0.5946664    
  0.5990636    
  0.6181207    
  0.6375992    
  0.6574585    
  0.6776395    
  0.6980569    
  0.7185889    
  0.7390619    
  0.7592282    
  0.7787370    
  0.7970949    
  0.8136259    
  0.8274513    
  0.8375414    
  0.8429039    
  0.8429039    
  0.8375414    
  0.8274513    
  0.8136259    
  0.7970949    
  0.7787370    
  0.7592282    
  0.7390619    
  0.7185889    
  0.6980569    
  0.6776395    
  0.6574585    
  0.6375991    
  0.6181207    
  0.5990636    
  0.6028125    
  0.6222449    
  0.6421522    
  0.6625042    
  0.6832543    
  0.7043325    
  0.7256352    
  0.7470093    
  0.7682294    
  0.7889615    
  0.8087134    
  0.8267701    
  0.8421353    
  0.8535481    
  0.8596981    
  0.8596981    
  0.8535481    
  0.8421353    
  0.8267701    
  0.8087135    
  0.7889615    
  0.7682294    
  0.7470093    
  0.7256352    
  0.7043325    
  0.6832543    
  0.6625042    
  0.6421522    
  0.6222449    
  0.6028125    
  0.6059407    
  0.6256930    
  0.6459677    
  0.6667445    
  0.6879889    
  0.7096468    
  0.7316338    
  0.7538210    
  0.7760107    
  0.7978981    
  0.8190116    
  0.8386226    
  0.8556377    
  0.8685449    
  0.8756241    
  0.8756241    
  0.8685449    
  0.8556377    
  0.8386226    
  0.8190116    
  0.7978981    
  0.7760107    
  0.7538210    
  0.7316338    
  0.7096468    
  0.6879889    
  0.6667445    
  0.6459677    
  0.6256930    
  0.6059407    
  0.6084896    
  0.6285071    
  0.6490878    
  0.6702202    
  0.6918815    
  0.7140322    
  0.7366075    
  0.7595034    
  0.7825541    
  0.8054932    
  0.8278878    
  0.8490273    
  0.8677581    
  0.8823213    
  0.8904884    
  0.8904884    
  0.8823213    
  0.8677582    
  0.8490273    
  0.8278878    
  0.8054932    
  0.7825541    
  0.7595034    
  0.7366074    
  0.7140322    
  0.6918815    
  0.6702202    
  0.6490877    
  0.6285071    
  0.6084896    
  0.6105120    
  0.6307429    
  0.6515708    
  0.6729918    
  0.6949933    
  0.7175490    
  0.7406123    
  0.7641033    
  0.7878891    
  0.8117465    
  0.8352954    
  0.8578741    
  0.8783200    
  0.8946645    
  0.9040857    
  0.9040857    
  0.8946645    
  0.8783200    
  0.8578741    
  0.8352954    
  0.8117465    
  0.7878891    
  0.7641033    
  0.7406123    
  0.7175490    
  0.6949932    
  0.6729918    
  0.6515707    
  0.6307429    
  0.6105119    
  0.6120695    
  0.6324667    
  0.6534877    
  0.6751349    
  0.6974043    
  0.7202809    
  0.7437337    
  0.7677047    
  0.7920917    
  0.8167151    
  0.8412544    
  0.8651205    
  0.8871964    
  0.9053776    
  0.9162057    
  0.9162057    
  0.9053776    
  0.8871964    
  0.8651205    
  0.8412544    
  0.8167151    
  0.7920917    
  0.7677047    
  0.7437337    
  0.7202809    
  0.6974043    
  0.6751349    
  0.6534876    
  0.6324667    
  0.6120695    
  0.6132288    
  0.6337509    
  0.6549171    
  0.6767350    
  0.6992072    
  0.7223280    
  0.7460788    
  0.7704201    
  0.7952762    
  0.8205071    
  0.8458513    
  0.8708031    
  0.8943356    
  0.9143044    
  0.9266430    
  0.9266430    
  0.9143044    
  0.8943356    
  0.8708031    
  0.8458513    
  0.8205071    
  0.7952763    
  0.7704201    
  0.7460788    
  0.7223280    
  0.6992072    
  0.6767350    
  0.6549170    
  0.6337509    
  0.6132288    
  0.6140566    
  0.6346684    
  0.6559391    
  0.6778802    
  0.7004991    
  0.7237970    
  0.7477652    
  0.7723781    
  0.7975813    
  0.8232675    
  0.8492267    
  0.8750342    
  0.8997752    
  0.9213558    
  0.9352100    
  0.9352100    
  0.9213558    
  0.8997753    
  0.8750342    
  0.8492267    
  0.8232675    
  0.7975814    
  0.7723781    
  0.7477652    
  0.7237970    
  0.7004991    
  0.6778802    
  0.6559391    
  0.6346684    
  0.6140566    
  0.6146149    
  0.6352873    
  0.6566290    
  0.6786537    
  0.7013724    
  0.7247912    
  0.7489080    
  0.7737076    
  0.7991509    
  0.8251549    
  0.8515497    
  0.8779781    
  0.9036334    
  0.9265264    
  0.9417534    
  0.9417534    
  0.9265264    
  0.9036334    
  0.8779781    
  0.8515497    
  0.8251549    
  0.7991509    
  0.7737076    
  0.7489080    
  0.7247912    
  0.7013724    
  0.6786537    
  0.6566290    
  0.6352873    
  0.6146149    
  0.6149555    
  0.6356651    
  0.6570502    
  0.6791261    
  0.7019061    
  0.7253991    
  0.7496076    
  0.7745225    
  0.8001148    
  0.8263172    
  0.8529867    
  0.8798131    
  0.9060726    
  0.9298842    
  0.9461646    
  0.9461647    
  0.9298842    
  0.9060726    
  0.8798131    
  0.8529868    
  0.8263172    
  0.8001148    
  0.7745225    
  0.7496076    
  0.7253991    
  0.7019061    
  0.6791261    
  0.6570501    
  0.6356651    
  0.6149555    
  0.6151159    
  0.6358431    
  0.6572487    
  0.6793489    
  0.7021578    
  0.7256859    
  0.7499378    
  0.7749075    
  0.8005705    
  0.8268676    
  0.8536690    
  0.8806884    
  0.9072460    
  0.9315279    
  0.9483825    
  0.9483825    
  0.9315279    
  0.9072461    
  0.8806884    
  0.8536690    
  0.8268676    
  0.8005705    
  0.7749075    
  0.7499377    
  0.7256859    
  0.7021577    
  0.6793489    
  0.6572487    
  0.6358431    
  0.6151159    
  0.6151159    
  0.6358431    
  0.6572487    
  0.6793489    
  0.7021578    
  0.7256859    
  0.7499378    
  0.7749075    
  0.8005705    
  0.8268676    
  0.8536690    
  0.8806884    
  0.9072460    
  0.9315279    
  0.9483825    
  0.9483825    
  0.9315279    
  0.9072461    
  0.8806884    
  0.8536690    
  0.8268676    
  0.8005705    
  0.7749075    
  0.7499377    
  0.7256859    
  0.7021577    
  0.6793489    
  0.6572487    
  0.6358431    
  0.6151159    
  0.6149555    
  0.6356651    
  0.6570502    
  0.6791261    
  0.7019061    
  0.7253991    
  0.7496076    
  0.7745225    
  0.8001148    
  0.8263172    
  0.8529867    
  0.8798131    
  0.9060726    
  0.9298842    
  0.9461646    
  0.9461647    
  0.9298842    
  0.9060726    
  0.8798131    
  0.8529868    
  0.8263172    
  0.8001148    
  0.7745225    
  0.7496076    
  0.7253991    
  0.7019061    
  0.6791261    
  0.6570501    
  0.6356651    
  0.6149555    
  0.6146149    
  0.6352873    
  0.6566290    
  0.6786537    
  0.7013724    
  0.7247912    
  0.7489080    
  0.7737076    
  0.7991509    
  0.8251549    
  0.8515497    
  0.8779781    
  0.9036334    
  0.9265264    
  0.9417534    
  0.9417534    
  0.9265264    
  0.9036334    
  0.8779781    
  0.8515497    
  0.8251549    
  0.7991509    
  0.7737076    
  0.7489080    
  0.7247912    
  0.7013724    
  0.6786537    
  0.6566290    
  0.6352873    
  0.6146149    
  0.6140566    
  0.6346684    
  0.6559391    
  0.6778802    
  0.7004991    
  0.7237970    
  0.7477652    
  0.7723781    
  0.7975813    
  0.8232675    
  0.8492267    
  0.8750342    
  0.8997752    
  0.9213558    
  0.9352100    
  0.9352100    
  0.9213558    
  0.8997753    
  0.8750342    
  0.8492267    
  0.8232675    
  0.7975814    
  0.7723781    
  0.7477652    
  0.7237970    
  0.7004991    
  0.6778802    
  0.6559391    
  0.6346684    
  0.6140566    
  0.6132288    
  0.6337509    
  0.6549171    
  0.6767350    
  0.6992072    
  0.7223280    
  0.7460788    
  0.7704201    
  0.7952762    
  0.8205071    
  0.8458513    
  0.8708031    
  0.8943356    
  0.9143044    
  0.9266430    
  0.9266430    
  0.9143044    
  0.8943356    
  0.8708031    
  0.8458513    
  0.8205071    
  0.7952763    
  0.7704201    
  0.7460788    
  0.7223280    
  0.6992072    
  0.6767350    
  0.6549170    
  0.6337509    
  0.6132288    
  0.6120695    
  0.6324667    
  0.6534877    
  0.6751349    
  0.6974043    
  0.7202809    
  0.7437337    
  0.7677047    
  0.7920917    
  0.8167151    
  0.8412544    
  0.8651205    
  0.8871964    
  0.9053776    
  0.9162057    
  0.9162057    
  0.9053776    
  0.8871964    
  0.8651205    
  0.8412544    
  0.8167151    
  0.7920917    
  0.7677047    
  0.7437337    
  0.7202809    
  0.6974043    
  0.6751349    
  0.6534876    
  0.6324667    
  0.6120695    
  0.6105120    
  0.6307429    
  0.6515708    
  0.6729918    
  0.6949933    
  0.7175490    
  0.7406123    
  0.7641033    
  0.7878891    
  0.8117465    
  0.8352954    
  0.8578741    
  0.8783200    
  0.8946645    
  0.9040857    
  0.9040857    
  0.8946645    
  0.8783200    
  0.8578741    
  0.8352954    
  0.8117465    
  0.7878891    
  0.7641033    
  0.7406123    
  0.7175490    
  0.6949932    
  0.6729918    
  0.6515707    
  0.6307429    
  0.6105119    
  0.6084896    
  0.6285071    
  0.6490878    
  0.6702202    
  0.6918815    
  0.7140322    
  0.7366075    
  0.7595034    
  0.7825541    
  0.8054932    
  0.8278878    
  0.8490273    
  0.8677581    
  0.8823213    
  0.8904884    
  0.8904884    
  0.8823213    
  0.8677582    
  0.8490273    
  0.8278878    
  0.8054932    
  0.7825541    
  0.7595034    
  0.7366074    
  0.7140322    
  0.6918815    
  0.6702202    
  0.6490877    
  0.6285071    
  0.6084896    
  0.6059407    
  0.6256930    
  0.6459677    
  0.6667444    
  0.6879889    
  0.7096468    
  0.7316338    
  0.7538210    
  0.7760106    
  0.7978981    
  0.8190116    
  0.8386226    
  0.8556377    
  0.8685449    
  0.8756241    
  0.8756241    
  0.8685449    
  0.8556377    
  0.8386226    
  0.8190116    
  0.7978981    
  0.7760107    
  0.7538210    
  0.7316338    
  0.7096468    
  0.6879889    
  0.6667444    
  0.6459677    
  0.6256930    
  0.6059407    
  0.6028125    
  0.6222449    
  0.6421522    
  0.6625042    
  0.6832543    
  0.7043325    
  0.7256352    
  0.7470093    
  0.7682294    
  0.7889615    
  0.8087134    
  0.8267701    
  0.8421353    
  0.8535481    
  0.8596981    
  0.8596981    
  0.8535481    
  0.8421353    
  0.8267701    
  0.8087135    
  0.7889615    
  0.7682294    
  0.7470093    
  0.7256352    
  0.7043325    
  0.6832543    
  0.6625042    
  0.6421522    
  0.6222449    
  0.6028125    
  0.5990636    
  0.6181207    
  0.6375992    
  0.6574585    
  0.6776395    
  0.6980569    
  0.7185889    
  0.7390619    
  0.7592282    
  0.7787370    
  0.7970949    
  0.8136259    
  0.8274513    
  0.8375414    
  0.8429039    
  0.8429039    
  0.8375414    
  0.8274513    
  0.8136259    
  0.7970949    
  0.7787370    
  0.7592282    
  0.7390619    
  0.7185889    
  0.6980569    
  0.6776395    
  0.6574585    
  0.6375991    
  0.6181207    
  0.5990636    
  0.5946664    
  0.6132940    
  0.6322846    
  0.6515875    
  0.6711313    
  0.6908169    
  0.7105066    
  0.7300104    
  0.7490676    
  0.7673219    
  0.7842960    
  0.7993706    
  0.8117893    
  0.8207229    
  0.8254195    
  0.8254195    
  0.8207229    
  0.8117893    
  0.7993706    
  0.7842960    
  0.7673219    
  0.7490676    
  0.7300104    
  0.7105065    
  0.6908169    
  0.6711313    
  0.6515875    
  0.6322846    
  0.6132940    
  0.5946664    
  0.5896075    
  0.6077548    
  0.6262033    
  0.6448928    
  0.6637410    
  0.6826366    
  0.7014297    
  0.7199200    
  0.7378410    
  0.7548430    
  0.7704774    
  0.7841908    
  0.7953435    
  0.8032724    
  0.8074055    
  0.8074055    
  0.8032724    
  0.7953435    
  0.7841908    
  0.7704774    
  0.7548430    
  0.7378410    
  0.7199200    
  0.7014297    
  0.6826366    
  0.6637409    
  0.6448928    
  0.6262033    
  0.6077548    
  0.5896075    
  0.5838877    
  0.6015089    
  0.6193681    
  0.6373962    
  0.6555018    
  0.6735642    
  0.6914255    
  0.7088804    
  0.7256646    
  0.7414438    
  0.7558065    
  0.7682673    
  0.7782914    
  0.7853498    
  0.7890047    
  0.7890048    
  0.7853498    
  0.7782914    
  0.7682673    
  0.7558065    
  0.7414438    
  0.7256646    
  0.7088804    
  0.6914255    
  0.6735642    
  0.6555018    
  0.6373962    
  0.6193681    
  0.6015089    
  0.5838876    
  0.5775210    
  0.5945769    
  0.6118075    
  0.6291366    
  0.6464655    
  0.6636671    
  0.6805795    
  0.6969979    
  0.7126666    
  0.7272730    
  0.7404464    
  0.7517670    
  0.7607908    
  0.7670953    
  0.7703426    
  0.7703426    
  0.7670953    
  0.7607908    
  0.7517670    
  0.7404464    
  0.7272730    
  0.7126666    
  0.6969979    
  0.6805795    
  0.6636671    
  0.6464654    
  0.6291366    
  0.6118075    
  0.5945769    
  0.5775210    
  0.5834392    
  0.6010200    
  0.6188340    
  0.6368116    
  0.6548608    
  0.6728604    
  0.6906520    
  0.7080300    
  0.7247309    
  0.7404216    
  0.7546935    
  0.7670662    
  0.7770121    
  0.7840111    
  0.7876337    
  0.7876337    
  0.7840111    
  0.7770121    
  0.7670662    
  0.7546935    
  0.7404216    
  0.7247309    
  0.7080300    
  0.6906520    
  0.6728604    
  0.6548608    
  0.6368116    
  0.6188339    
  0.6010200    
  0.5834392    
  0.5896075    
  0.6077548    
  0.6262033    
  0.6448928    
  0.6637410    
  0.6826366    
  0.7014297    
  0.7199200    
  0.7378410    
  0.7548430    
  0.7704774    
  0.7841908    
  0.7953435    
  0.8032724    
  0.8074055    
  0.8074055    
  0.8032724    
  0.7953435    
  0.7841908    
  0.7704774    
  0.7548430    
  0.7378410    
  0.7199200    
  0.7014297    
  0.6826366    
  0.6637409    
  0.6448928    
  0.6262033    
  0.6077548    
  0.5896075    
  0.5950765    
  0.6137437    